 +-------------------------------------------------+
 |                                                 |
 |      CCC   AA    SSS  TTTTT  EEEEE  PPPP        |
 |     C     A  A  S       T    E      P   P       |
 |     C     AAAA   SS     T    EEE    PPPP        |
 |     C     A  A     S    T    E      P           |
 |      CCC  A  A  SSS     T    EEEEE  P           |
 |                                                 |
 +-------------------------------------------------+
 |                                                 |
 | Welcome to Academic Release CASTEP version 25.12|
 | Ab Initio Total Energy Program                  |
 |                                                 |
 | Authors:                                        |
 | M. Segall, M. Probert, C. Pickard, P. Hasnip,   |
 | S. Clark, K. Refson, J. R. Yates,               |
 | A. Bartok-Partay, M. Payne                      |
 |                                                 |
 | Contributors:                                   |
 | P. Lindan, P. Haynes, J. White, V. Milman,      |
 | N. Govind, M. Gibson, P. Tulip, V. Cocula,      |
 | B. Montanari, D. Quigley, M. Glover,            |
 | L. Bernasconi, A. Perlov, M. Plummer,           |
 | E. McNellis, J. Meyer, J. Gale, D. Jochym       |
 | J. Aarons, B. Walker, R. Gillen, D. Jones       |
 | T. Green, I. J. Bush, C. J. Armstrong,          |
 | E. J. Higgins, E. L. Brown, M. S. McFly,        |
 | J. Wilkins, B-C. Shih, P. J. P. Byrne,          |
 | R. J. Maurer, J. C. Womack, J. Dziedzic,        |
 | L. LeBlanc, T. K. Stenczel, J. Kermode,         |
 | S. Sturniolo, B. Shi, B. Durham, M. Evans,      |
 | M. J. Smith, A. Tamerus, Z. Hawkhead,           |
 | V. Ravindran, T. Hollins, S. A. Joyce,          |
 | R. T. Strong, A. M. Reilly, S. J. Donaldson,    |
 | J. C. A. Prentice                               |
 |                                                 |
 | Copyright (c) 2000 - 2024                       |
 |                                                 |
 |     Distributed under license from Cambridge    |
 |     Enterprise for academic use only.           |
 |                                                 |
 | Please cite                                     |
 |                                                 |
 |     "First principles methods using CASTEP"     |
 |                                                 |
 |         Zeitschrift fuer Kristallographie       |
 |           220(5-6) pp. 567-570 (2005)           |
 |                                                 |
 | S. J. Clark, M. D. Segall, C. J. Pickard,       |
 | P. J. Hasnip, M. J. Probert, K. Refson,         |
 | M. C. Payne                                     |
 |                                                 |
 |       in all publications arising from          |
 |              your use of CASTEP                 |
 |                                                 |
 +-------------------------------------------------+
 |                                                 |
 |              http://www.castep.org              |
 |                                                 |
 +-------------------------------------------------+



 Compiled for linux_x86_64_gfortran10 on Sun, 13 Jul 2025 14:49:40 -0400
 from code version git version unavailable
 Compiler: GNU Fortran 13.3.0; Optimisation: fast
 Comms   : Open MPI v5.0.3
 MATHLIBS: flexiblas (IMKL) (LAPACK version 3.12.0)
 FFT Lib : fftw3 version fftw-3.3.10-sse2-avx-avx2-avx2_128
 Fundamental constants values: CODATA 2018

 Run started: Thu, 11 Dec 2025 00:38:00 -0500

 Atomic calculation performed for Li: 1s2 2s1

 Converged in 47 iterations to an ae energy of -202.784 eV

   ============================================================                
   | Pseudopotential Report - Date of generation 11-12-2025   |                
   ------------------------------------------------------------                
   | Element: Li Ionic charge:  3.00 Level of theory: PBE     |                
   | Atomic Solver: Koelling-Harmon                           |                
   |                                                          |                
   |               Reference Electronic Structure             |                
   |         Orbital         Occupation         Energy        |                
   |            1s              2.000           -1.906        |                
   |            2s              1.000           -0.106        |                
   |                                                          |                
   |                 Pseudopotential Definition               |                
   |        Beta     l      e      Rc     scheme   norm       |                
   |          1      0   -1.906   1.001     qc      0         |                
   |          2      0   -0.106   1.001     qc      0         |                
   |          3      0    0.250   1.001     qc      0         |                
   |         loc     1    0.000   1.001     pn      0         |                
   |                                                          |                
   | Augmentation charge Rinner = 0.699                       |                
   | No partial core correction                               |                
   ------------------------------------------------------------                
   | "1|1.0|14|16|18|10U:20(qc=7)"                            |                
   ------------------------------------------------------------                
   |      Author: Chris J. Pickard, Cambridge University      |                
   ============================================================                

 Atomic calculation performed for O: 1s2 2s2 2p4

 Converged in 61 iterations to an ae energy of -2040.902 eV

   ============================================================                
   | Pseudopotential Report - Date of generation 11-12-2025   |                
   ------------------------------------------------------------                
   | Element: O Ionic charge:  6.00 Level of theory: PBE      |                
   | Atomic Solver: Koelling-Harmon                           |                
   |                                                          |                
   |               Reference Electronic Structure             |                
   |         Orbital         Occupation         Energy        |                
   |            2s              2.000           -0.881        |                
   |            2p              4.000           -0.332        |                
   |                                                          |                
   |                 Pseudopotential Definition               |                
   |        Beta     l      e      Rc     scheme   norm       |                
   |          1      0   -0.881   1.100     qc      0         |                
   |          2      0    0.250   1.100     qc      0         |                
   |          3      1   -0.332   1.100     qc      0         |                
   |          4      1    0.250   1.100     qc      0         |                
   |         loc     2    0.000   1.100     pn      0         |                
   |                                                          |                
   | Augmentation charge Rinner = 0.769                       |                
   | Partial core correction Rc = 0.769                       |                
   ------------------------------------------------------------                
   | "2|1.1|17|20|23|20:21(qc=8)"                             |                
   ------------------------------------------------------------                
   |      Author: Chris J. Pickard, Cambridge University      |                
   ============================================================                

 Atomic calculation performed for P: 1s2 2s2 2p6 3s2 3p3

 Converged in 56 iterations to an ae energy of -9303.626 eV

   ============================================================                
   | Pseudopotential Report - Date of generation 11-12-2025   |                
   ------------------------------------------------------------                
   | Element: P Ionic charge:  5.00 Level of theory: PBE      |                
   | Atomic Solver: Koelling-Harmon                           |                
   |                                                          |                
   |               Reference Electronic Structure             |                
   |         Orbital         Occupation         Energy        |                
   |            3s              2.000           -0.513        |                
   |            3p              3.000           -0.202        |                
   |                                                          |                
   |                 Pseudopotential Definition               |                
   |        Beta     l      e      Rc     scheme   norm       |                
   |          1      0   -0.513   1.807     qc      0         |                
   |          2      0    0.250   1.807     qc      0         |                
   |          3      1   -0.202   1.807     qc      0         |                
   |          4      1    0.250   1.807     qc      0         |                
   |          5      2    0.000   1.807     qc      0         |                
   |          6      2    0.250   1.807     qc      0         |                
   |         loc     3    0.000   1.807     pn      0         |                
   |                                                          |                
   | Augmentation charge Rinner = 1.263                       |                
   | Partial core correction Rc = 1.263                       |                
   ------------------------------------------------------------                
   | "3|1.8|4|4|5|30:31:32"                                   |                
   ------------------------------------------------------------                
   |      Author: Chris J. Pickard, Cambridge University      |                
   ============================================================                

 Atomic calculation performed for Ti: 1s2 2s2 2p6 3s2 3p6 3d2 4s2

 Converged in 79 iterations to an ae energy of -23226.658 eV

   ============================================================                
   | Pseudopotential Report - Date of generation 11-12-2025   |                
   ------------------------------------------------------------                
   | Element: Ti Ionic charge: 12.00 Level of theory: PBE     |                
   | Atomic Solver: Koelling-Harmon                           |                
   |                                                          |                
   |               Reference Electronic Structure             |                
   |         Orbital         Occupation         Energy        |                
   |            3s              2.000           -2.302        |                
   |            3p              6.000           -1.428        |                
   |            4s              2.000           -0.164        |                
   |            3d              2.000           -0.157        |                
   |                                                          |                
   |                 Pseudopotential Definition               |                
   |        Beta     l      e      Rc     scheme   norm       |                
   |          1      0   -2.302   1.793     qc      0         |                
   |          2      0   -0.164   1.793     qc      0         |                
   |          3      0    0.250   1.793     qc      0         |                
   |          4      1   -1.428   1.793     qc      0         |                
   |          5      1    0.250   1.793     qc      0         |                
   |          6      2   -0.157   1.793     qc      0         |                
   |          7      2    0.250   1.793     qc      0         |                
   |         loc     3    0.000   1.793     pn      0         |                
   |                                                          |                
   | Augmentation charge Rinner = 1.263                       |                
   | Partial core correction Rc = 1.263                       |                
   ------------------------------------------------------------                
   | "3|1.8|9|10|11|30U:40:31:32(qc=5.5)"                     |                
   ------------------------------------------------------------                
   |      Author: Chris J. Pickard, Cambridge University      |                
   ============================================================                

 Pseudo atomic calculation performed for Li 1s2 2s1

 Converged in 18 iterations to a total energy of -200.5098 eV

 Pseudo atomic calculation performed for O 2s2 2p4

 Converged in 24 iterations to a total energy of -432.3399 eV

 Pseudo atomic calculation performed for P 3s2 3p3

 Converged in 18 iterations to a total energy of -214.2237 eV

 Pseudo atomic calculation performed for Ti 3s2 3p6 3d2 4s2

 Converged in 34 iterations to a total energy of -1587.0351 eV
 Calculation parallelised over 12 processes.
 Data is distributed by G-vector(3-way) and k-point(4-way)

 ************************************ Title ************************************
 

 ***************************** General Parameters ******************************
  
 output verbosity                               : normal  (1)
 write checkpoint data to                       : ml_dos.check
 type of calculation                            : Electronic Spectroscopy
 stress calculation                             : off
 density difference calculation                 : off
 electron localisation func (ELF) calculation   : off
 Hirshfeld analysis                             : off
 polarisation (Berry phase) analysis            : off
 molecular orbital projected DOS                : off
 deltaSCF calculation                           : off
 unlimited duration calculation
 timing information                             : on
 memory usage estimate                          : on
 write extra output files                       : on
 write final potential to formatted file        : off
 write final density to formatted file          : off
 write BibTeX reference list                    : on
 write OTFG pseudopotential files               : on
 write electrostatic potential file             : on
 write bands file                               : on
 checkpoint writing                             : both castep_bin and check files
  
 output         length unit                     : A
 output           mass unit                     : amu
 output           time unit                     : ps
 output         charge unit                     : e
 output           spin unit                     : hbar/2
 output         energy unit                     : eV
 output          force unit                     : eV/A
 output       velocity unit                     : A/ps
 output       pressure unit                     : GPa
 output     inv_length unit                     : 1/A
 output      frequency unit                     : cm-1
 output force constant unit                     : eV/A**2
 output         volume unit                     : A**3
 output   IR intensity unit                     : (D/A)**2/amu
 output         dipole unit                     : D
 output         efield unit                     : eV/A/e
 output        entropy unit                     : J/mol/K
 output    efield chi2 unit                     : pm/V
  
 wavefunctions paging                           : none
 random number generator seed                   :    3800044
 data distribution                              : optimal for this architecture
 optimization strategy                          : balance speed and memory

 *********************** Exchange-Correlation Parameters ***********************
  
 using functional                               : Perdew Burke Ernzerhof
 relativistic treatment                         : Koelling-Harmon
 DFT+D: Semi-empirical dispersion correction    : off

 ************************* Pseudopotential Parameters **************************
  
 pseudopotential representation                 : reciprocal space
 <beta|phi> representation                      : reciprocal space
 spin-orbit coupling                            : off

 **************************** Basis Set Parameters *****************************
  
 plane wave basis set cut-off                   :   900.0000   eV
 size of standard grid                          :     2.0000
 size of   fine   gmax                          :    30.7390   1/A
 finite basis set correction                    : none

 **************************** Electronic Parameters ****************************
  
 number of  electrons                           :  228.0    
 net charge of system                           :  0.000    
 treating system as non-spin-polarized
 number of bands                                :        137

 ********************* Electronic Minimization Parameters **********************
  
 Method: Treating system as metallic with density mixing treatment of electrons,
         and number of  SD  steps               :          1
         and number of  CG  steps               :          4
  
 total energy / atom convergence tol.           : 0.1000E-05   eV
 eigen-energy convergence tolerance             : 0.3158E-06   eV
 max force / atom convergence tol.              : ignored
 convergence tolerance window                   :          3   cycles
 max. number of SCF cycles                      :        300
 number of fixed-spin iterations                :         10
 smearing scheme                                : Gaussian
 smearing width                                 : 0.2000       eV
 Fermi energy convergence tolerance             : 0.2721E-13   eV
 periodic dipole correction                     : NONE

 ************************** Density Mixing Parameters **************************
  
 density-mixing scheme                          : Pulay
 max. length of mixing history                  :         20
 charge density mixing amplitude                : 0.2000    
 cut-off energy for mixing                      :  900.0       eV

 *********************** Population Analysis Parameters ************************
  
 Population analysis with cutoff                :  3.000       A
 Population analysis output                     : summary and pdos components
 Partial DOS weights calculated

 ********************* Electronic Spectroscopy Parameters **********************
  
 electronic spectroscopy with theory level      : DFT       
 spectroscopy calculation                       : density of states
 max. number of iterations                      :         60
 max. steps per iteration                       :          5
 number of bands / k-point                      :        196
 band convergence tolerance                     : 0.1000E-05   eV
 write orbitals file                            : off

 *******************************************************************************
  

                           -------------------------------
                                      Unit Cell
                           -------------------------------
        Real Lattice(A)                      Reciprocal Lattice(1/A)
     8.4822170     0.0000000     0.0000000        0.740748003  -0.422259163  -0.299296643
     4.2006660     7.3690170     0.0000000        0.000000000   0.852649045  -0.299296695
     4.2006660     2.4406740     6.9530950        0.000000000   0.000000000   0.903653022

                       Lattice parameters(A)       Cell Angles
                    a =      8.482217          alpha =   60.314945
                    b =      8.482217          beta  =   60.314947
                    c =      8.482218          gamma =   60.314945

                       Current cell volume =           434.607384       A**3
                                   density =             1.783629   AMU/A**3
                                           =             2.961785     g/cm^3

                           -------------------------------
                                     Cell Contents
                           -------------------------------
                         Total number of ions in cell =   36
                      Total number of species in cell =    4
                        Max number of any one species =   24

            xxxxxxxxxxxxxxxxxxxxxxxxxxxxxxxxxxxxxxxxxxxxxxxxxxxxxxxxxxxx
            x  Element    Atom        Fractional coordinates of atoms  x
            x            Number           u          v          w      x
            x----------------------------------------------------------x
            x  Li           1         0.499999   0.500001   0.500000   x 
            x  Li           2         0.000001   0.999999   0.000000   x 
            x  O            1         0.497341   0.122069   0.310849   x 
            x  O            2         0.122068   0.310849   0.497341   x 
            x  O            3         0.310849   0.497341   0.122068   x 
            x  O            4         0.997341   0.810849   0.622068   x 
            x  O            5         0.810849   0.622068   0.997341   x 
            x  O            6         0.622068   0.997341   0.810849   x 
            x  O            7         0.502659   0.877931   0.689151   x 
            x  O            8         0.877932   0.689151   0.502659   x 
            x  O            9         0.689151   0.502659   0.877932   x 
            x  O           10         0.002659   0.189151   0.377932   x 
            x  O           11         0.189151   0.377932   0.002659   x 
            x  O           12         0.377932   0.002659   0.189150   x 
            x  O           13         0.444345   0.232478   0.585552   x 
            x  O           14         0.232478   0.585552   0.444345   x 
            x  O           15         0.585553   0.444344   0.232478   x 
            x  O           16         0.944345   0.085552   0.732478   x 
            x  O           17         0.085552   0.732478   0.944345   x 
            x  O           18         0.732477   0.944345   0.085552   x 
            x  O           19         0.555655   0.767522   0.414448   x 
            x  O           20         0.767523   0.414447   0.555655   x 
            x  O           21         0.414447   0.555655   0.767523   x 
            x  O           22         0.055655   0.914448   0.267522   x 
            x  O           23         0.914447   0.267523   0.055655   x 
            x  O           24         0.267523   0.055655   0.914447   x 
            x  P            1         0.540651   0.959349   0.250000   x 
            x  P            2         0.959349   0.250000   0.540652   x 
            x  P            3         0.250000   0.540652   0.959349   x 
            x  P            4         0.040652   0.750000   0.459348   x 
            x  P            5         0.750000   0.459349   0.040651   x 
            x  P            6         0.459349   0.040652   0.750000   x 
            x  Ti           1         0.359554   0.359554   0.359553   x 
            x  Ti           2         0.859554   0.859553   0.859553   x 
            x  Ti           3         0.640446   0.640447   0.640447   x 
            x  Ti           4         0.140447   0.140447   0.140447   x 
            xxxxxxxxxxxxxxxxxxxxxxxxxxxxxxxxxxxxxxxxxxxxxxxxxxxxxxxxxxxx


                         No user defined ionic velocities

                           -------------------------------
                                   Details of Species
                           -------------------------------

                               Mass of species in AMU
                                    Li    6.9410000
                                    O   15.9994000
                                    P   30.9737600
                                    Ti   47.8670000

                          Electric Quadrupole Moment (Barn)
                                    Li   -0.0401000 Isotope   7
                                    O   -0.0255800 Isotope  17
                                    P    1.0000000 No Isotope Defined
                                    Ti    0.3020000 Isotope  47

                          Files used for pseudopotentials:
                                    Li 1|1.0|14|16|18|10U:20(qc=7)
                                    O 2|1.1|17|20|23|20:21(qc=8)
                                    P 3|1.8|4|4|5|30:31:32
                                    Ti 3|1.8|9|10|11|30U:40:31:32(qc=5.5)

                           -------------------------------
                              k-Points For BZ Sampling
                           -------------------------------
                       MP grid size for SCF calculation is  4  4  4
                            with an offset of   0.000  0.000  0.000
                       Number of kpoints used =            32

                           -------------------------------
                               Symmetry and Constraints
                           -------------------------------

                      Maximum deviation from symmetry =  0.00000         ANG

                      Number of symmetry operations   =           1
                      Number of ionic constraints     =           3
                      Point group of crystal =     1: C1, 1, 1
                      Space group of crystal =   167: R-3c, -R 3 2"c

             Set iprint > 1 for details on symmetry rotations/translations

                         Centre of mass is constrained
             Set iprint > 2 for details of linear ionic constraints

                         Number of cell constraints= 0
                         Cell constraints are:  1 2 3 4 5 6

                         External pressure/stress (GPa)
                          0.00000   0.00000   0.00000
                                    0.00000   0.00000
                                              0.00000
 
+---------------- MEMORY AND SCRATCH DISK ESTIMATES PER PROCESS --------------+
|                                                     Memory          Disk    |
| Baseline code, static data and system overhead      808.0 MB         0.0 MB |
| BLAS internal memory storage                          0.0 MB         0.0 MB |
| Model and support data                             1363.1 MB         0.0 MB |
| Electronic energy minimisation requirements         402.7 MB         0.0 MB |
| Force calculation requirements                       35.2 MB         0.0 MB |
|                                               ----------------------------- |
| Approx. total storage required per process         2573.8 MB         0.0 MB |
|                                                                             |
| Requirements will fluctuate during execution and may exceed these estimates |
+-----------------------------------------------------------------------------+
Calculating approximate eigenstates for fixed initial Hamiltonian
Cut-off for approx. calculation is   98.987 eV
Improving approx. states at cut-off of  450.000 eV
Resetting cut-off to  900.000 eV
Calculating total energy with cut-off of  900.000 eV.
------------------------------------------------------------------------ <-- SCF
SCF loop      Energy           Fermi           Energy gain       Timer   <-- SCF
                               energy          per atom          (sec)   <-- SCF
------------------------------------------------------------------------ <-- SCF
Initial  -1.82686151E+004  0.00000000E+000                        56.05  <-- SCF
      1  -1.87081592E+004  4.16543245E+000   1.22095569E+001     127.59  <-- SCF
      2  -1.87092240E+004  4.15669272E+000   2.95790173E-002     189.12  <-- SCF
      3  -1.86921787E+004  3.40453905E+000  -4.73482418E-001     237.34  <-- SCF
      4  -1.86867750E+004  2.84744850E+000  -1.50102327E-001     309.38  <-- SCF
      5  -1.86867240E+004  3.54921002E+000  -1.41728065E-003     378.20  <-- SCF
      6  -1.86869366E+004  4.11935750E+000   5.90713249E-003     425.95  <-- SCF
      7  -1.86864928E+004  3.85261412E+000  -1.23290666E-002     473.43  <-- SCF
      8  -1.86864245E+004  3.58223589E+000  -1.89677618E-003     518.78  <-- SCF
      9  -1.86864341E+004  3.59969553E+000   2.68422819E-004     568.26  <-- SCF
     10  -1.86864395E+004  3.61898216E+000   1.47587778E-004     614.60  <-- SCF
     11  -1.86864398E+004  3.62106418E+000   9.44236614E-006     652.66  <-- SCF
     12  -1.86864390E+004  3.65255809E+000  -2.12906763E-005     694.47  <-- SCF
     13  -1.86864391E+004  3.64877635E+000   1.27295953E-006     726.61  <-- SCF
     14  -1.86864390E+004  3.64978302E+000  -8.54422184E-007     758.70  <-- SCF
     15  -1.86864391E+004  3.65116484E+000   2.66463747E-007     785.26  <-- SCF
------------------------------------------------------------------------ <-- SCF
 
Final energy, E             =  -18686.43905645     eV
Final free energy (E-TS)    =  -18686.43905645     eV
(energies not corrected for finite basis set)
 
NB est. 0K energy (E-0.5TS)      =  -18686.43905645     eV
 

Writing analysis data to ml_dos.castep_bin

Writing model to ml_dos.check
 
+---------------- MEMORY AND SCRATCH DISK ESTIMATES PER PROCESS --------------+
|                                                     Memory          Disk    |
|                                               ----------------------------- |
| Approx. total storage required per process         1351.1 MB         0.0 MB |
|                                                                             |
| Requirements will fluctuate during execution and may exceed these estimates |
+-----------------------------------------------------------------------------+
 
  =====================================================================
  +                                                                   +
  +                 Calculation of Spectral Properties                +
  +                                                                   +
  + Calculation re-parallelised over 12 processes.                    +
  + There are 32 k-points distributed across 4 k-point groups.        +
  + Data distributed by G-vector(3-way), k-point(4-way), band(1-way)  +
  + Data distributed by G-vector(3-way), k-point(4-way)               +
  +                                                                   +
  =====================================================================

 Pseudo atomic calculation performed for Li 1s2 2s1

 Converged in 18 iterations to a total energy of -200.5098 eV

 Pseudo atomic calculation performed for O 2s2 2p4

 Converged in 24 iterations to a total energy of -432.3399 eV

 Pseudo atomic calculation performed for P 3s2 3p3

 Converged in 18 iterations to a total energy of -214.2237 eV

 Pseudo atomic calculation performed for Ti 3s2 3p6 3d2 4s2

 Converged in 34 iterations to a total energy of -1587.0351 eV
  Starting k-point:        1 of        8 Time:      0.00 sec  |<-- SPEC

 Pseudo atomic calculation performed for Li 1s2 2s1

 Converged in 18 iterations to a total energy of -200.5098 eV

 Pseudo atomic calculation performed for O 2s2 2p4

 Converged in 24 iterations to a total energy of -432.3399 eV

 Pseudo atomic calculation performed for P 3s2 3p3

 Converged in 18 iterations to a total energy of -214.2237 eV

 Pseudo atomic calculation performed for Ti 3s2 3p6 3d2 4s2

 Converged in 34 iterations to a total energy of -1587.0351 eV
  Starting k-point:        2 of        8 Time:     71.28 sec  |<-- SPEC

 Pseudo atomic calculation performed for Li 1s2 2s1

 Converged in 18 iterations to a total energy of -200.5098 eV

 Pseudo atomic calculation performed for O 2s2 2p4

 Converged in 24 iterations to a total energy of -432.3399 eV

 Pseudo atomic calculation performed for P 3s2 3p3

 Converged in 18 iterations to a total energy of -214.2237 eV

 Pseudo atomic calculation performed for Ti 3s2 3p6 3d2 4s2

 Converged in 34 iterations to a total energy of -1587.0351 eV
  Starting k-point:        3 of        8 Time:    143.16 sec  |<-- SPEC

 Pseudo atomic calculation performed for Li 1s2 2s1

 Converged in 18 iterations to a total energy of -200.5098 eV

 Pseudo atomic calculation performed for O 2s2 2p4

 Converged in 24 iterations to a total energy of -432.3399 eV

 Pseudo atomic calculation performed for P 3s2 3p3

 Converged in 18 iterations to a total energy of -214.2237 eV

 Pseudo atomic calculation performed for Ti 3s2 3p6 3d2 4s2

 Converged in 34 iterations to a total energy of -1587.0351 eV
  Starting k-point:        4 of        8 Time:    213.99 sec  |<-- SPEC

 Pseudo atomic calculation performed for Li 1s2 2s1

 Converged in 18 iterations to a total energy of -200.5098 eV

 Pseudo atomic calculation performed for O 2s2 2p4

 Converged in 24 iterations to a total energy of -432.3399 eV

 Pseudo atomic calculation performed for P 3s2 3p3

 Converged in 18 iterations to a total energy of -214.2237 eV

 Pseudo atomic calculation performed for Ti 3s2 3p6 3d2 4s2

 Converged in 34 iterations to a total energy of -1587.0351 eV
  Starting k-point:        5 of        8 Time:    285.65 sec  |<-- SPEC

 Pseudo atomic calculation performed for Li 1s2 2s1

 Converged in 18 iterations to a total energy of -200.5098 eV

 Pseudo atomic calculation performed for O 2s2 2p4

 Converged in 24 iterations to a total energy of -432.3399 eV

 Pseudo atomic calculation performed for P 3s2 3p3

 Converged in 18 iterations to a total energy of -214.2237 eV

 Pseudo atomic calculation performed for Ti 3s2 3p6 3d2 4s2

 Converged in 34 iterations to a total energy of -1587.0351 eV
  Starting k-point:        6 of        8 Time:    355.57 sec  |<-- SPEC

 Pseudo atomic calculation performed for Li 1s2 2s1

 Converged in 18 iterations to a total energy of -200.5098 eV

 Pseudo atomic calculation performed for O 2s2 2p4

 Converged in 24 iterations to a total energy of -432.3399 eV

 Pseudo atomic calculation performed for P 3s2 3p3

 Converged in 18 iterations to a total energy of -214.2237 eV

 Pseudo atomic calculation performed for Ti 3s2 3p6 3d2 4s2

 Converged in 34 iterations to a total energy of -1587.0351 eV
  Starting k-point:        7 of        8 Time:    425.94 sec  |<-- SPEC

 Pseudo atomic calculation performed for Li 1s2 2s1

 Converged in 18 iterations to a total energy of -200.5098 eV

 Pseudo atomic calculation performed for O 2s2 2p4

 Converged in 24 iterations to a total energy of -432.3399 eV

 Pseudo atomic calculation performed for P 3s2 3p3

 Converged in 18 iterations to a total energy of -214.2237 eV

 Pseudo atomic calculation performed for Ti 3s2 3p6 3d2 4s2

 Converged in 34 iterations to a total energy of -1587.0351 eV
  Starting k-point:        8 of        8 Time:    496.69 sec  |<-- SPEC

 Pseudo atomic calculation performed for Li 1s2 2s1

 Converged in 18 iterations to a total energy of -200.5098 eV

 Pseudo atomic calculation performed for O 2s2 2p4

 Converged in 24 iterations to a total energy of -432.3399 eV

 Pseudo atomic calculation performed for P 3s2 3p3

 Converged in 18 iterations to a total energy of -214.2237 eV

 Pseudo atomic calculation performed for Ti 3s2 3p6 3d2 4s2

 Converged in 34 iterations to a total energy of -1587.0351 eV
  Check-pointing spectral run                                 |<-- SPEC
  Total time to compute matrix elements            568.10 sec |<-- SPEC
  
  + Calculation re-parallelised over 12 processes.                    +
  + Data distributed by G-vector(3-way), k-point(4-way)               +

 ************************** Forces **************************
 *                                                          *
 *               Cartesian components (eV/A)                *
 * -------------------------------------------------------- *
 *                         x            y            z      *
 *                                                          *
 * Li              1      0.00002     -0.00002      0.00000 *
 * Li              2      0.00001      0.00001     -0.00000 *
 * O               1      0.33751      0.73758      0.21120 *
 * O               2      0.80838      0.17537     -0.13796 *
 * O               3      0.55286      0.07357      0.62641 *
 * O               4      0.33761      0.44371      0.62613 *
 * O               5      0.55278      0.61530     -0.13813 *
 * O               6      0.80839     -0.07203      0.21121 *
 * O               7     -0.33743     -0.73737     -0.21114 *
 * O               8     -0.80806     -0.17542      0.13792 *
 * O               9     -0.55280     -0.07346     -0.62631 *
 * O              10     -0.33754     -0.44370     -0.62612 *
 * O              11     -0.55262     -0.61507      0.13805 *
 * O              12     -0.80805      0.07206     -0.21101 *
 * O              13      0.05489      0.56064     -0.53489 *
 * O              14      0.51417     -0.58077     -0.03987 *
 * O              15     -0.24999      0.20567      0.70620 *
 * O              16      0.05488     -0.31900      0.70617 *
 * O              17     -0.24986      0.73449     -0.03979 *
 * O              18      0.51421     -0.22988     -0.53475 *
 * O              19     -0.05490     -0.56050      0.53468 *
 * O              20     -0.51435      0.58108      0.03983 *
 * O              21      0.25001     -0.20565     -0.70633 *
 * O              22     -0.05477      0.31888     -0.70620 *
 * O              23      0.25008     -0.73470      0.03982 *
 * O              24     -0.51431      0.22994      0.53500 *
 * P               1      0.03020     -0.05190      0.00010 *
 * P               2     -0.03036      0.01702      0.04880 *
 * P               3     -0.00035      0.03449     -0.04895 *
 * P               4      0.02995     -0.01713     -0.04882 *
 * P               5      0.00001     -0.03477      0.04898 *
 * P               6     -0.03047      0.05145     -0.00021 *
 * Ti              1     -0.06846     -0.03978     -0.02820 *
 * Ti              2     -0.06837     -0.03975     -0.02814 *
 * Ti              3      0.06844      0.03971      0.02818 *
 * Ti              4      0.06827      0.03991      0.02811 *
 *                                                          *
 ************************************************************

 Pseudo atomic calculation performed for Li 1s2 2s1

 Converged in 18 iterations to a total energy of -200.5098 eV

 Pseudo atomic calculation performed for O 2s2 2p4

 Converged in 24 iterations to a total energy of -432.3399 eV

 Pseudo atomic calculation performed for P 3s2 3p3

 Converged in 18 iterations to a total energy of -214.2237 eV

 Pseudo atomic calculation performed for Ti 3s2 3p6 3d2 4s2

 Converged in 34 iterations to a total energy of -1587.0351 eV
Charge spilling parameter for spin component 1 = 0.91%

            Orbital Populations       
     Ion    Atom   Orbital             Charge
  -------------------------------------------
     Li     1      S                    2.000
     Li     1      S                   -0.036
     Li     1      Px                   0.034
     Li     1      Py                   0.035
     Li     1      Pz                   0.036
     Li     2      S                    2.000
     Li     2      S                   -0.036
     Li     2      Px                   0.034
     Li     2      Py                   0.035
     Li     2      Pz                   0.036
      O     1      S                    1.823
      O     1      Px                   1.754
      O     1      Py                   1.557
      O     1      Pz                   1.761
      O     2      S                    1.823
      O     2      Px                   1.550
      O     2      Py                   1.771
      O     2      Pz                   1.750
      O     3      S                    1.823
      O     3      Px                   1.685
      O     3      Py                   1.771
      O     3      Pz                   1.616
      O     4      S                    1.823
      O     4      Px                   1.754
      O     4      Py                   1.702
      O     4      Pz                   1.616
      O     5      S                    1.823
      O     5      Px                   1.685
      O     5      Py                   1.636
      O     5      Pz                   1.751
      O     6      S                    1.823
      O     6      Px                   1.550
      O     6      Py                   1.760
      O     6      Pz                   1.761
      O     7      S                    1.823
      O     7      Px                   1.754
      O     7      Py                   1.557
      O     7      Pz                   1.761
      O     8      S                    1.823
      O     8      Px                   1.550
      O     8      Py                   1.771
      O     8      Pz                   1.750
      O     9      S                    1.823
      O     9      Px                   1.684
      O     9      Py                   1.771
      O     9      Pz                   1.616
      O    10      S                    1.823
      O    10      Px                   1.754
      O    10      Py                   1.702
      O    10      Pz                   1.616
      O    11      S                    1.823
      O    11      Px                   1.684
      O    11      Py                   1.636
      O    11      Pz                   1.750
      O    12      S                    1.823
      O    12      Px                   1.550
      O    12      Py                   1.760
      O    12      Pz                   1.761
      O    13      S                    1.840
      O    13      Px                   1.768
      O    13      Py                   1.699
      O    13      Pz                   1.624
      O    14      S                    1.840
      O    14      Px                   1.720
      O    14      Py                   1.579
      O    14      Pz                   1.792
      O    15      S                    1.840
      O    15      Px                   1.690
      O    15      Py                   1.784
      O    15      Pz                   1.617
      O    16      S                    1.840
      O    16      Px                   1.768
      O    16      Py                   1.707
      O    16      Pz                   1.616
      O    17      S                    1.840
      O    17      Px                   1.690
      O    17      Py                   1.609
      O    17      Pz                   1.792
      O    18      S                    1.840
      O    18      Px                   1.720
      O    18      Py                   1.747
      O    18      Pz                   1.624
      O    19      S                    1.840
      O    19      Px                   1.768
      O    19      Py                   1.700
      O    19      Pz                   1.624
      O    20      S                    1.840
      O    20      Px                   1.721
      O    20      Py                   1.578
      O    20      Pz                   1.792
      O    21      S                    1.840
      O    21      Px                   1.690
      O    21      Py                   1.785
      O    21      Pz                   1.617
      O    22      S                    1.840
      O    22      Px                   1.768
      O    22      Py                   1.706
      O    22      Pz                   1.617
      O    23      S                    1.840
      O    23      Px                   1.690
      O    23      Py                   1.609
      O    23      Pz                   1.792
      O    24      S                    1.840
      O    24      Px                   1.721
      O    24      Py                   1.747
      O    24      Pz                   1.624
      P     1      S                    0.868
      P     1      Px                   0.598
      P     1      Py                   0.612
      P     1      Pz                   0.614
      P     2      S                    0.868
      P     2      Px                   0.598
      P     2      Py                   0.615
      P     2      Pz                   0.611
      P     3      S                    0.868
      P     3      Px                   0.610
      P     3      Py                   0.603
      P     3      Pz                   0.611
      P     4      S                    0.868
      P     4      Px                   0.598
      P     4      Py                   0.615
      P     4      Pz                   0.611
      P     5      S                    0.868
      P     5      Px                   0.610
      P     5      Py                   0.603
      P     5      Pz                   0.611
      P     6      S                    0.868
      P     6      Px                   0.598
      P     6      Py                   0.612
      P     6      Pz                   0.614
     Ti     1      S                    1.992
     Ti     1      Px                   1.990
     Ti     1      Py                   1.991
     Ti     1      Pz                   1.992
     Ti     1      S                    0.213
     Ti     1      Dzz                  0.409
     Ti     1      Dzy                  0.387
     Ti     1      Dzx                  0.456
     Ti     1      Dxx-yy               0.468
     Ti     1      Dxy                  0.350
     Ti     1      Px                   0.077
     Ti     1      Py                   0.065
     Ti     1      Pz                   0.062
     Ti     2      S                    1.992
     Ti     2      Px                   1.990
     Ti     2      Py                   1.991
     Ti     2      Pz                   1.992
     Ti     2      S                    0.213
     Ti     2      Dzz                  0.409
     Ti     2      Dzy                  0.457
     Ti     2      Dzx                  0.386
     Ti     2      Dxx-yy               0.398
     Ti     2      Dxy                  0.420
     Ti     2      Px                   0.077
     Ti     2      Py                   0.065
     Ti     2      Pz                   0.062
     Ti     3      S                    1.992
     Ti     3      Px                   1.990
     Ti     3      Py                   1.991
     Ti     3      Pz                   1.992
     Ti     3      S                    0.213
     Ti     3      Dzz                  0.409
     Ti     3      Dzy                  0.387
     Ti     3      Dzx                  0.456
     Ti     3      Dxx-yy               0.468
     Ti     3      Dxy                  0.350
     Ti     3      Px                   0.077
     Ti     3      Py                   0.065
     Ti     3      Pz                   0.062
     Ti     4      S                    1.992
     Ti     4      Px                   1.990
     Ti     4      Py                   1.991
     Ti     4      Pz                   1.992
     Ti     4      S                    0.213
     Ti     4      Dzz                  0.409
     Ti     4      Dzy                  0.457
     Ti     4      Dzx                  0.386
     Ti     4      Dxx-yy               0.398
     Ti     4      Dxy                  0.420
     Ti     4      Px                   0.077
     Ti     4      Py                   0.065
     Ti     4      Pz                   0.062
  -------------------------------------------
                           Total:     227.996
  -------------------------------------------

     Atomic Populations (Mulliken)
     -----------------------------
Species          Ion     s       p       d       f      Total   Charge (e)
==========================================================================
  Li              1     1.963   0.105   0.000   0.000   2.068     0.932
  Li              2     1.963   0.105   0.000   0.000   2.068     0.932
  O               1     1.823   5.071   0.000   0.000   6.894    -0.894
  O               2     1.823   5.071   0.000   0.000   6.894    -0.894
  O               3     1.823   5.071   0.000   0.000   6.894    -0.894
  O               4     1.823   5.071   0.000   0.000   6.894    -0.894
  O               5     1.823   5.072   0.000   0.000   6.894    -0.894
  O               6     1.823   5.071   0.000   0.000   6.894    -0.894
  O               7     1.823   5.071   0.000   0.000   6.894    -0.894
  O               8     1.823   5.071   0.000   0.000   6.894    -0.894
  O               9     1.823   5.071   0.000   0.000   6.894    -0.894
  O              10     1.823   5.071   0.000   0.000   6.894    -0.894
  O              11     1.823   5.071   0.000   0.000   6.894    -0.894
  O              12     1.823   5.071   0.000   0.000   6.894    -0.894
  O              13     1.840   5.091   0.000   0.000   6.931    -0.931
  O              14     1.840   5.091   0.000   0.000   6.931    -0.931
  O              15     1.840   5.091   0.000   0.000   6.931    -0.931
  O              16     1.840   5.091   0.000   0.000   6.931    -0.931
  O              17     1.840   5.092   0.000   0.000   6.931    -0.931
  O              18     1.840   5.091   0.000   0.000   6.931    -0.931
  O              19     1.840   5.092   0.000   0.000   6.931    -0.931
  O              20     1.840   5.091   0.000   0.000   6.931    -0.931
  O              21     1.840   5.092   0.000   0.000   6.931    -0.931
  O              22     1.840   5.091   0.000   0.000   6.931    -0.931
  O              23     1.840   5.091   0.000   0.000   6.931    -0.931
  O              24     1.840   5.092   0.000   0.000   6.931    -0.931
  P               1     0.868   1.824   0.000   0.000   2.691     2.309
  P               2     0.868   1.824   0.000   0.000   2.691     2.309
  P               3     0.868   1.824   0.000   0.000   2.692     2.308
  P               4     0.868   1.824   0.000   0.000   2.691     2.309
  P               5     0.868   1.824   0.000   0.000   2.691     2.309
  P               6     0.868   1.824   0.000   0.000   2.691     2.309
  Ti              1     2.205   6.178   2.070   0.000  10.452     1.548
  Ti              2     2.205   6.178   2.070   0.000  10.452     1.548
  Ti              3     2.205   6.178   2.070   0.000  10.452     1.548
  Ti              4     2.205   6.178   2.070   0.000  10.452     1.548
==========================================================================

                 Bond                   Population      Length (A)
======================================================================
              O 2  -- P 2                    0.66        1.52378
              O 6  -- P 6                    0.66        1.52378
              O 3  -- P 3                    0.66        1.52378
              O 5  -- P 5                    0.66        1.52379
              O 9  -- P 5                    0.66        1.52379
              O 8  -- P 4                    0.66        1.52379
              O 4  -- P 4                    0.66        1.52379
              O 12 -- P 1                    0.66        1.52379
              O 11 -- P 3                    0.66        1.52380
              O 1  -- P 1                    0.66        1.52380
              O 10 -- P 2                    0.66        1.52380
              O 7  -- P 6                    0.66        1.52380
              O 20 -- P 2                    0.65        1.52713
              O 23 -- P 5                    0.65        1.52713
              O 24 -- P 6                    0.65        1.52713
              O 21 -- P 3                    0.65        1.52713
              O 14 -- P 4                    0.65        1.52713
              O 22 -- P 4                    0.65        1.52713
              O 17 -- P 3                    0.65        1.52713
              O 13 -- P 6                    0.65        1.52713
              O 16 -- P 2                    0.65        1.52713
              O 18 -- P 1                    0.65        1.52713
              O 15 -- P 5                    0.65        1.52713
              O 19 -- P 1                    0.65        1.52713
              O 7  -- Ti 3                   0.41        1.89962
              O 12 -- Ti 4                   0.41        1.89963
              O 11 -- Ti 4                   0.41        1.89963
              O 10 -- Ti 4                   0.41        1.89963
              O 1  -- Ti 1                   0.41        1.89963
              O 4  -- Ti 2                   0.41        1.89963
              O 5  -- Ti 2                   0.41        1.89963
              O 9  -- Ti 3                   0.41        1.89963
              O 3  -- Ti 1                   0.41        1.89963
              O 6  -- Ti 2                   0.41        1.89964
              O 8  -- Ti 3                   0.41        1.89964
              O 2  -- Ti 1                   0.41        1.89964
              O 15 -- Ti 1                   0.33        1.97612
              O 14 -- Ti 1                   0.33        1.97612
              O 17 -- Ti 2                   0.33        1.97612
              O 13 -- Ti 1                   0.33        1.97612
              O 16 -- Ti 2                   0.33        1.97612
              O 19 -- Ti 3                   0.33        1.97612
              O 18 -- Ti 2                   0.33        1.97612
              O 21 -- Ti 3                   0.33        1.97612
              O 22 -- Ti 4                   0.33        1.97613
              O 20 -- Ti 3                   0.33        1.97613
              O 23 -- Ti 4                   0.33        1.97613
              O 24 -- Ti 4                   0.33        1.97613
              Li 1 -- O 14                   0.04        2.23368
              Li 2 -- O 17                   0.04        2.23368
              Li 1 -- O 19                   0.04        2.23369
              Li 2 -- O 22                   0.04        2.23369
              Li 2 -- O 24                   0.04        2.23369
              Li 2 -- O 16                   0.04        2.23369
              Li 1 -- O 13                   0.04        2.23369
              Li 1 -- O 21                   0.04        2.23369
              Li 1 -- O 15                   0.04        2.23369
              Li 1 -- O 20                   0.04        2.23370
              Li 2 -- O 23                   0.04        2.23370
              Li 2 -- O 18                   0.04        2.23370
              O 9  -- O 23                  -0.14        2.45003
              O 11 -- O 21                  -0.14        2.45003
              O 10 -- O 20                  -0.14        2.45003
              O 7  -- O 24                  -0.14        2.45004
              O 5  -- O 15                  -0.14        2.45004
              O 3  -- O 17                  -0.14        2.45004
              O 6  -- O 13                  -0.14        2.45004
              O 2  -- O 16                  -0.14        2.45004
              O 8  -- O 22                  -0.14        2.45004
              O 4  -- O 14                  -0.14        2.45004
              O 1  -- O 18                  -0.14        2.45004
              O 12 -- O 19                  -0.14        2.45005
              O 3  -- O 11                  -0.13        2.49089
              O 5  -- O 9                   -0.13        2.49089
              O 2  -- O 10                  -0.13        2.49089
              O 4  -- O 8                   -0.13        2.49089
              O 6  -- O 7                   -0.13        2.49090
              O 1  -- O 12                  -0.13        2.49091
              O 15 -- O 23                  -0.13        2.49425
              O 16 -- O 20                  -0.13        2.49425
              O 17 -- O 21                  -0.13        2.49425
              O 13 -- O 24                  -0.13        2.49425
              O 18 -- O 19                  -0.13        2.49426
              O 14 -- O 22                  -0.13        2.49426
              O 2  -- O 20                  -0.11        2.52994
              O 5  -- O 23                  -0.11        2.52994
              O 6  -- O 24                  -0.11        2.52994
              O 12 -- O 18                  -0.11        2.52994
              O 3  -- O 21                  -0.11        2.52994
              O 9  -- O 15                  -0.11        2.52994
              O 8  -- O 14                  -0.11        2.52994
              O 11 -- O 17                  -0.11        2.52994
              O 10 -- O 16                  -0.11        2.52994
              O 4  -- O 22                  -0.11        2.52994
              O 1  -- O 19                  -0.11        2.52995
              O 7  -- O 13                  -0.11        2.52995
              O 13 -- O 15                  -0.05        2.62329
              O 13 -- O 14                  -0.05        2.62329
              O 16 -- O 17                  -0.05        2.62329
              O 16 -- O 18                  -0.05        2.62329
              O 17 -- O 18                  -0.05        2.62330
              O 22 -- O 23                  -0.05        2.62330
              O 14 -- O 15                  -0.05        2.62330
              O 19 -- O 21                  -0.05        2.62330
              O 19 -- O 20                  -0.05        2.62330
              O 22 -- O 24                  -0.05        2.62330
              O 23 -- O 24                  -0.05        2.62331
              O 20 -- O 21                  -0.05        2.62331
              O 12 -- O 24                  -0.03        2.68615
              O 6  -- O 18                  -0.03        2.68615
              O 7  -- O 19                  -0.03        2.68615
              O 1  -- O 13                  -0.03        2.68615
              O 5  -- O 17                  -0.03        2.68615
              O 2  -- O 14                  -0.03        2.68615
              O 4  -- O 16                  -0.03        2.68615
              O 10 -- O 22                  -0.03        2.68615
              O 11 -- O 23                  -0.03        2.68616
              O 8  -- O 20                  -0.03        2.68616
              O 9  -- O 21                  -0.03        2.68616
              O 3  -- O 15                  -0.03        2.68616
              O 1  -- O 3                   -0.03        2.76981
              O 7  -- O 9                   -0.03        2.76981
              O 11 -- O 12                  -0.03        2.76981
              O 1  -- O 2                   -0.03        2.76981
              O 7  -- O 8                   -0.03        2.76981
              O 5  -- O 6                   -0.03        2.76982
              O 4  -- O 6                   -0.03        2.76982
              O 10 -- O 11                  -0.03        2.76982
              O 4  -- O 5                   -0.03        2.76982
              O 2  -- O 3                   -0.03        2.76982
              O 8  -- O 9                   -0.03        2.76982
              O 10 -- O 12                  -0.03        2.76982
              O 6  -- O 12                  -0.01        2.83835
              O 5  -- O 11                  -0.01        2.83835
              O 2  -- O 8                   -0.01        2.83835
              O 4  -- O 10                  -0.01        2.83835
              O 3  -- O 9                   -0.01        2.83835
              O 1  -- O 7                   -0.01        2.83836
              O 1  -- O 15                  -0.02        2.86491
              O 7  -- O 21                  -0.02        2.86492
              O 12 -- O 22                  -0.02        2.86492
              O 5  -- O 18                  -0.02        2.86492
              O 6  -- O 16                  -0.02        2.86492
              O 8  -- O 19                  -0.02        2.86492
              O 2  -- O 13                  -0.02        2.86492
              O 4  -- O 17                  -0.02        2.86492
              O 3  -- O 14                  -0.02        2.86492
              O 11 -- O 24                  -0.02        2.86492
              O 10 -- O 23                  -0.02        2.86493
              O 9  -- O 20                  -0.02        2.86493
              Li 1 -- Ti 1                  -0.23        2.91110
              Li 1 -- Ti 3                  -0.23        2.91111
              Li 2 -- Ti 2                  -0.23        2.91111
              Li 2 -- Ti 4                  -0.23        2.91112
======================================================================


Writing analysis data to ml_dos.castep_bin

Writing model to ml_dos.check
 
 A BibTeX formatted list of references used in this run has been written to 
 ml_dos.bib
 
Initialisation time =     10.82 s
Calculation time    =   1475.16 s
Finalisation time   =      2.89 s
Total time          =   1488.87 s
Peak Memory Use     = 3049524 kB
 
Overall parallel efficiency rating: Mediocre (54%)
 
Data was distributed by:-
G-vector (3-way); efficiency rating: Satisfactory (63%)
k-point (4-way); efficiency rating: Good (79%)
