 +-------------------------------------------------+
 |                                                 |
 |      CCC   AA    SSS  TTTTT  EEEEE  PPPP        |
 |     C     A  A  S       T    E      P   P       |
 |     C     AAAA   SS     T    EEE    PPPP        |
 |     C     A  A     S    T    E      P           |
 |      CCC  A  A  SSS     T    EEEEE  P           |
 |                                                 |
 +-------------------------------------------------+
 |                                                 |
 | Welcome to Academic Release CASTEP version 25.12|
 | Ab Initio Total Energy Program                  |
 |                                                 |
 | Authors:                                        |
 | M. Segall, M. Probert, C. Pickard, P. Hasnip,   |
 | S. Clark, K. Refson, J. R. Yates,               |
 | A. Bartok-Partay, M. Payne                      |
 |                                                 |
 | Contributors:                                   |
 | P. Lindan, P. Haynes, J. White, V. Milman,      |
 | N. Govind, M. Gibson, P. Tulip, V. Cocula,      |
 | B. Montanari, D. Quigley, M. Glover,            |
 | L. Bernasconi, A. Perlov, M. Plummer,           |
 | E. McNellis, J. Meyer, J. Gale, D. Jochym       |
 | J. Aarons, B. Walker, R. Gillen, D. Jones       |
 | T. Green, I. J. Bush, C. J. Armstrong,          |
 | E. J. Higgins, E. L. Brown, M. S. McFly,        |
 | J. Wilkins, B-C. Shih, P. J. P. Byrne,          |
 | R. J. Maurer, J. C. Womack, J. Dziedzic,        |
 | L. LeBlanc, T. K. Stenczel, J. Kermode,         |
 | S. Sturniolo, B. Shi, B. Durham, M. Evans,      |
 | M. J. Smith, A. Tamerus, Z. Hawkhead,           |
 | V. Ravindran, T. Hollins, S. A. Joyce,          |
 | R. T. Strong, A. M. Reilly, S. J. Donaldson,    |
 | J. C. A. Prentice                               |
 |                                                 |
 | Copyright (c) 2000 - 2024                       |
 |                                                 |
 |     Distributed under license from Cambridge    |
 |     Enterprise for academic use only.           |
 |                                                 |
 | Please cite                                     |
 |                                                 |
 |     "First principles methods using CASTEP"     |
 |                                                 |
 |         Zeitschrift fuer Kristallographie       |
 |           220(5-6) pp. 567-570 (2005)           |
 |                                                 |
 | S. J. Clark, M. D. Segall, C. J. Pickard,       |
 | P. J. Hasnip, M. J. Probert, K. Refson,         |
 | M. C. Payne                                     |
 |                                                 |
 |       in all publications arising from          |
 |              your use of CASTEP                 |
 |                                                 |
 +-------------------------------------------------+
 |                                                 |
 |              http://www.castep.org              |
 |                                                 |
 +-------------------------------------------------+



 Compiled for linux_x86_64_gfortran10 on Sun, 13 Jul 2025 14:49:40 -0400
 from code version git version unavailable
 Compiler: GNU Fortran 13.3.0; Optimisation: fast
 Comms   : Open MPI v5.0.3
 MATHLIBS: flexiblas (IMKL) (LAPACK version 3.12.0)
 FFT Lib : fftw3 version fftw-3.3.10-sse2-avx-avx2-avx2_128
 Fundamental constants values: CODATA 2018

 Run started: Fri, 20 Feb 2026 12:06:41 -0500
 Warning in parameters_read: presetting of magnetic moments on atoms cannot be guaranteed when metals_method /= density mixing

 Atomic calculation performed for Li: 1s2 2s1

 Converged in 47 iterations to an ae energy of -202.784 eV

   ============================================================                
   | Pseudopotential Report - Date of generation 20-02-2026   |                
   ------------------------------------------------------------                
   | Element: Li Ionic charge:  3.00 Level of theory: PBE     |                
   | Atomic Solver: Koelling-Harmon                           |                
   |                                                          |                
   |               Reference Electronic Structure             |                
   |         Orbital         Occupation         Energy        |                
   |            1s              2.000           -1.906        |                
   |            2s              1.000           -0.106        |                
   |                                                          |                
   |                 Pseudopotential Definition               |                
   |        Beta     l      e      Rc     scheme   norm       |                
   |          1      0   -1.906   1.001     qc      0         |                
   |          2      0   -0.106   1.001     qc      0         |                
   |          3      0    0.250   1.001     qc      0         |                
   |         loc     1    0.000   1.001     pn      0         |                
   |                                                          |                
   | Augmentation charge Rinner = 0.699                       |                
   | No partial core correction                               |                
   ------------------------------------------------------------                
   | "1|1.0|14|16|18|10U:20(qc=7)"                            |                
   ------------------------------------------------------------                
   |      Author: Chris J. Pickard, Cambridge University      |                
   ============================================================                

 Atomic calculation performed for O: 1s2 2s2 2p4

 Converged in 61 iterations to an ae energy of -2040.902 eV

   ============================================================                
   | Pseudopotential Report - Date of generation 20-02-2026   |                
   ------------------------------------------------------------                
   | Element: O Ionic charge:  6.00 Level of theory: PBE      |                
   | Atomic Solver: Koelling-Harmon                           |                
   |                                                          |                
   |               Reference Electronic Structure             |                
   |         Orbital         Occupation         Energy        |                
   |            2s              2.000           -0.881        |                
   |            2p              4.000           -0.332        |                
   |                                                          |                
   |                 Pseudopotential Definition               |                
   |        Beta     l      e      Rc     scheme   norm       |                
   |          1      0   -0.881   1.100     qc      0         |                
   |          2      0    0.250   1.100     qc      0         |                
   |          3      1   -0.332   1.100     qc      0         |                
   |          4      1    0.250   1.100     qc      0         |                
   |         loc     2    0.000   1.100     pn      0         |                
   |                                                          |                
   | Augmentation charge Rinner = 0.769                       |                
   | Partial core correction Rc = 0.769                       |                
   ------------------------------------------------------------                
   | "2|1.1|17|20|23|20:21(qc=8)"                             |                
   ------------------------------------------------------------                
   |      Author: Chris J. Pickard, Cambridge University      |                
   ============================================================                

 Atomic calculation performed for V: 1s2 2s2 2p6 3s2 3p6 3d3 4s2

 Converged in 81 iterations to an ae energy of -25823.733 eV

   ============================================================                
   | Pseudopotential Report - Date of generation 20-02-2026   |                
   ------------------------------------------------------------                
   | Element: V Ionic charge: 13.00 Level of theory: PBE      |                
   | Atomic Solver: Koelling-Harmon                           |                
   |                                                          |                
   |               Reference Electronic Structure             |                
   |         Orbital         Occupation         Energy        |                
   |            3s              2.000           -2.581        |                
   |            3p              6.000           -1.618        |                
   |            3d              3.000           -0.190        |                
   |            4s              2.000           -0.173        |                
   |                                                          |                
   |                 Pseudopotential Definition               |                
   |        Beta     l      e      Rc     scheme   norm       |                
   |          1      0   -2.581   1.803     qc      0         |                
   |          2      0   -0.173   1.803     qc      0         |                
   |          3      0    0.250   1.803     qc      0         |                
   |          4      1   -1.618   1.803     qc      0         |                
   |          5      1    0.250   1.803     qc      0         |                
   |          6      2   -0.190   1.803     qc      0         |                
   |          7      2    0.250   1.803     qc      0         |                
   |         loc     3    0.000   1.803     pn      0         |                
   |                                                          |                
   | Augmentation charge Rinner = 0.600                       |                
   | Partial core correction Rc = 0.600                       |                
   ------------------------------------------------------------                
   | "3|1.8|1.8|0.6|12|14|16|30U:40:31:32(qc=7)"              |                
   ------------------------------------------------------------                
   |      Author: Chris J. Pickard, Cambridge University      |                
   ============================================================                

 Atomic calculation performed for Fe: 1s2 2s2 2p6 3s2 3p6 3d6 4s2

 Converged in 96 iterations to an ae energy of -34625.102 eV

   ============================================================                
   | Pseudopotential Report - Date of generation 20-02-2026   |                
   ------------------------------------------------------------                
   | Element: Fe Ionic charge:  8.00 Level of theory: PBE     |                
   | Atomic Solver: Koelling-Harmon                           |                
   |                                                          |                
   |               Reference Electronic Structure             |                
   |         Orbital         Occupation         Energy        |                
   |            3d              6.000           -0.276        |                
   |            4s              2.000           -0.194        |                
   |                                                          |                
   |                 Pseudopotential Definition               |                
   |        Beta     l      e      Rc     scheme   norm       |                
   |          1      0   -0.194   2.399     qc      0         |                
   |          2      0    0.250   2.399     qc      0         |                
   |          3      1    0.000   2.399     qc      0         |                
   |          4      1    0.250   2.399     qc      0         |                
   |          5      2   -0.276   1.997     qc      0         |                
   |          6      2    0.250   1.997     qc      0         |                
   |         loc     3    0.000   2.399     pn      0         |                
   |                                                          |                
   | Augmentation charge Rinner = 1.000                       |                
   | Partial core correction Rc = 1.000                       |                
   ------------------------------------------------------------                
   | "3|2.4|2.4|1.0|8|9|10|40:41:32U2U2(qc=5.5)"              |                
   ------------------------------------------------------------                
   |      Author: Chris J. Pickard, Cambridge University      |                
   ============================================================                

 Pseudo atomic calculation performed for Li 1s2 2s1

 Converged in 18 iterations to a total energy of -200.5098 eV

 Pseudo atomic calculation performed for O 2s2 2p4

 Converged in 24 iterations to a total energy of -432.3399 eV

 Pseudo atomic calculation performed for V 3s2 3p6 3d3 4s2

 Converged in 36 iterations to a total energy of -2065.8041 eV

 Pseudo atomic calculation performed for Fe 3d6 4s2

 Converged in 34 iterations to a total energy of -853.8318 eV
 Calculation parallelised over 40 processes.
 Data is distributed by G-vector(40-way)

 ************************************ Title ************************************
 

 ***************************** General Parameters ******************************
  
 output verbosity                               : normal  (1)
 write checkpoint data to                       : ml_dos.check
 type of calculation                            : Electronic Spectroscopy
 stress calculation                             : off
 density difference calculation                 : off
 electron localisation func (ELF) calculation   : off
 Hirshfeld analysis                             : off
 polarisation (Berry phase) analysis            : off
 molecular orbital projected DOS                : off
 deltaSCF calculation                           : off
 unlimited duration calculation
 timing information                             : on
 memory usage estimate                          : on
 write extra output files                       : on
 write final potential to formatted file        : off
 write final density to formatted file          : off
 write BibTeX reference list                    : on
 write OTFG pseudopotential files               : on
 write electrostatic potential file             : on
 write bands file                               : on
 checkpoint writing                             : both castep_bin and check files
  
 output         length unit                     : A
 output           mass unit                     : amu
 output           time unit                     : ps
 output         charge unit                     : e
 output           spin unit                     : hbar/2
 output         energy unit                     : eV
 output          force unit                     : eV/A
 output       velocity unit                     : A/ps
 output       pressure unit                     : GPa
 output     inv_length unit                     : 1/A
 output      frequency unit                     : cm-1
 output force constant unit                     : eV/A**2
 output         volume unit                     : A**3
 output   IR intensity unit                     : (D/A)**2/amu
 output         dipole unit                     : D
 output         efield unit                     : eV/A/e
 output        entropy unit                     : J/mol/K
 output    efield chi2 unit                     : pm/V
  
 wavefunctions paging                           : none
 random number generator seed                   :  120641911
 data distribution                              : optimal for this architecture
 optimization strategy                          : balance speed and memory

 *********************** Exchange-Correlation Parameters ***********************
  
 using functional                               : Perdew Burke Ernzerhof
 relativistic treatment                         : Koelling-Harmon
 DFT+D: Semi-empirical dispersion correction    : off

 ************************* Pseudopotential Parameters **************************
  
 pseudopotential representation                 : reciprocal space
 <beta|phi> representation                      : reciprocal space
 spin-orbit coupling                            : off

 **************************** Basis Set Parameters *****************************
  
 plane wave basis set cut-off                   :   900.0000   eV
 size of standard grid                          :     2.0000
 size of   fine   gmax                          :    30.7390   1/A
 finite basis set correction                    : none

 **************************** Electronic Parameters ****************************
  
 number of  electrons                           :  486.0    
 net charge of system                           :  0.000    
 net spin   of system                           :  39.00    
 number of  up  spins                           :  262.5    
 number of down spins                           :  223.5    
 treating system as spin-polarized
 number of bands                                :        316
 electron temperature                           :     0.0000   K

 ********************* Electronic Minimization Parameters **********************
  
 Method: Treating system as metallic with ensemble DFT treatment of electrons,
         and number of  SD  steps               :          1
         and number of  CG  steps               :          4
  
 total energy / atom convergence tol.           : 0.1000E-05   eV
 max force / atom convergence tol.              : ignored
 convergence tolerance window                   :          3   cycles
 max. number of SCF cycles                      :        100
 number of fixed-spin iterations                :         10
 smearing scheme                                : Gaussian
 smearing width                                 : 0.2000       eV
 Fermi energy convergence tolerance             : 0.2721E-13   eV
 number of occupancy cycles                     :          6
 periodic dipole correction                     : NONE

 *********************** Population Analysis Parameters ************************
  
 Population analysis with cutoff                :  3.000       A
 Population analysis output                     : summary and pdos components
 Partial DOS weights calculated

 ********************* Electronic Spectroscopy Parameters **********************
  
 electronic spectroscopy with theory level      : DFT       
 spectroscopy calculation                       : density of states
 max. number of iterations                      :         60
 max. steps per iteration                       :          5
 number of bands / k-point                      :        405
 band convergence tolerance                     : 0.1000E-05   eV
 write orbitals file                            : off

 *******************************************************************************
  

                           -------------------------------
                                      Unit Cell
                           -------------------------------
        Real Lattice(A)                      Reciprocal Lattice(1/A)
     8.1582920     0.0000000     0.0000000        0.770159404  -0.407382882   0.040494307
     3.8146150     7.2115490     0.0000000        0.000000000   0.871267089   0.040494253
    -1.1045060    -0.6652680    14.3137870        0.000000000   0.000000000   0.438960375

                       Lattice parameters(A)       Cell Angles
                    a =      8.158292          alpha =   94.407674
                    b =      8.158292          beta  =   94.407676
                    c =     14.371744          gamma =   62.122987

                       Current cell volume =           842.136235       A**3
                                   density =             2.004133   AMU/A**3
                                           =             3.327941     g/cm^3

                           -------------------------------
                                     Cell Contents
                           -------------------------------
                         Total number of ions in cell =   70
                      Total number of species in cell =    4
                        Max number of any one species =   42

            xxxxxxxxxxxxxxxxxxxxxxxxxxxxxxxxxxxxxxxxxxxxxxxxxxxxxxxxxxxx
            x  Element    Atom        Fractional coordinates of atoms  x
            x            Number           u          v          w      x
            x----------------------------------------------------------x
            x  Li           1         0.946524   0.295168   0.707167   x 
            x  Li           2         0.295168   0.946524   0.207167   x 
            x  Li           3         0.005010   0.645789   0.034875   x 
            x  Li           4         0.645789   0.005010   0.534875   x 
            x  Li           5         0.338461   0.694524   0.374266   x 
            x  Li           6         0.694524   0.338461   0.874266   x 
            x  Li           7         0.539156   0.070088   0.228837   x 
            x  Li           8         0.070088   0.539156   0.728837   x 
            x  Li           9         0.810374   0.230166   0.188257   x 
            x  Li          10         0.230166   0.810374   0.688257   x 
            x  O            1         0.154041   0.803432   0.479993   x 
            x  O            2         0.803432   0.154041   0.979993   x 
            x  O            3         0.188397   0.499945   0.141807   x 
            x  O            4         0.499945   0.188397   0.641807   x 
            x  O            5         0.281900   0.205344   0.280264   x 
            x  O            6         0.205344   0.281900   0.780264   x 
            x  O            7         0.894319   0.887539   0.118273   x 
            x  O            8         0.887539   0.894319   0.618273   x 
            x  O            9         0.783695   0.072879   0.285700   x 
            x  O           10         0.072879   0.783695   0.785700   x 
            x  O           11         0.159840   0.451689   0.440954   x 
            x  O           12         0.451689   0.159840   0.940954   x 
            x  O           13         0.641663   0.448990   0.622298   x 
            x  O           14         0.448990   0.641663   0.122298   x 
            x  O           15         0.821025   0.410394   0.297443   x 
            x  O           16         0.410394   0.821025   0.797443   x 
            x  O           17         0.619793   0.553741   0.439640   x 
            x  O           18         0.553741   0.619793   0.939640   x 
            x  O           19         0.543002   0.811427   0.302917   x 
            x  O           20         0.811427   0.543002   0.802917   x 
            x  O           21         0.544631   0.815366   0.602676   x 
            x  O           22         0.815366   0.544631   0.102676   x 
            x  O           23         0.283338   0.063724   0.456435   x 
            x  O           24         0.063724   0.283338   0.956435   x 
            x  O           25         0.915755   0.676092   0.283819   x 
            x  O           26         0.676092   0.915755   0.783819   x 
            x  O           27         0.165682   0.830969   0.266866   x 
            x  O           28         0.830969   0.165682   0.766866   x 
            x  O           29         0.457108   0.453590   0.292970   x 
            x  O           30         0.453590   0.457108   0.792970   x 
            x  O           31         0.896331   0.185951   0.472156   x 
            x  O           32         0.185951   0.896331   0.972156   x 
            x  O           33         0.568942   0.252636   0.129994   x 
            x  O           34         0.252636   0.568942   0.629994   x 
            x  O           35         0.792799   0.737809   0.463942   x 
            x  O           36         0.737809   0.792799   0.963942   x 
            x  O           37         0.147980   0.055945   0.632733   x 
            x  O           38         0.055945   0.147980   0.132733   x 
            x  O           39         0.541834   0.195404   0.430735   x 
            x  O           40         0.195404   0.541834   0.930735   x 
            x  O           41         0.925097   0.527341   0.606855   x 
            x  O           42         0.527341   0.925097   0.106855   x 
            x  V            1         0.407202   0.470274   0.173094   x 
            x  V            2         0.470274   0.407202   0.673094   x 
            x  V            3         0.739494   0.649094   0.350484   x 
            x  V            4         0.649094   0.739494   0.850484   x 
            x  V            5         0.113030   0.029720   0.512354   x 
            x  V            6         0.029720   0.113030   0.012354   x 
            x  V            7         0.695180   0.604160   0.559972   x 
            x  V            8         0.604160   0.695180   0.059972   x 
            x  V            9         0.314874   0.236515   0.400426   x 
            x  V           10         0.236515   0.314874   0.900426   x 
            x  V           11         0.949549   0.858978   0.238108   x 
            x  V           12         0.858978   0.949549   0.738108   x 
            x  Fe           1         0.695856   0.296971   0.375484   x 
            x  Fe           2         0.296971   0.695856   0.875484   x 
            x  Fe           3         0.039352   0.659828   0.533895   x 
            x  Fe           4         0.659828   0.039352   0.033895   x 
            x  Fe           5         0.399430   0.036218   0.707651   x 
            x  Fe           6         0.036218   0.399430   0.207651   x 
            xxxxxxxxxxxxxxxxxxxxxxxxxxxxxxxxxxxxxxxxxxxxxxxxxxxxxxxxxxxx


                         No user defined ionic velocities

                           -------------------------------
                                   Details of Species
                           -------------------------------

                               Mass of species in AMU
                                    Li    6.9410000
                                    O   15.9994000
                                    V   50.9415000
                                    Fe   55.8450000

                          Electric Quadrupole Moment (Barn)
                                    Li   -0.0401000 Isotope   7
                                    O   -0.0255800 Isotope  17
                                    V   -0.0520000 Isotope  51
                                    Fe    0.1600000 Isotope  57
         xxxxxxxxxxxxxxxxxxxxxxxxxxxxxxxxxxxxxxxxxxxxxxxxxxxxxxxxxxxxxxxxxxxxxx
         |  Element    Atom         Initial            Initial magnetic       |
         |            Number    spin polarization        moment (uB)     Fix? |
         |--------------------------------------------------------------------|
         | Li             1         0.000000              0.000       F       |
         | Li             2         0.000000              0.000       F       |
         | Li             3         0.000000              0.000       F       |
         | Li             4         0.000000              0.000       F       |
         | Li             5         0.000000              0.000       F       |
         | Li             6         0.000000              0.000       F       |
         | Li             7         0.000000              0.000       F       |
         | Li             8         0.000000              0.000       F       |
         | Li             9         0.000000              0.000       F       |
         | Li            10         0.000000              0.000       F       |
         | O              1         0.000000              0.000       F       |
         | O              2         0.000000              0.000       F       |
         | O              3         0.000000              0.000       F       |
         | O              4         0.000000              0.000       F       |
         | O              5         0.000000              0.000       F       |
         | O              6         0.000000              0.000       F       |
         | O              7         0.000000              0.000       F       |
         | O              8         0.000000              0.000       F       |
         | O              9         0.000000              0.000       F       |
         | O             10         0.000000              0.000       F       |
         | O             11         0.000000              0.000       F       |
         | O             12         0.000000              0.000       F       |
         | O             13         0.000000              0.000       F       |
         | O             14         0.000000              0.000       F       |
         | O             15         0.000000              0.000       F       |
         | O             16         0.000000              0.000       F       |
         | O             17         0.000000              0.000       F       |
         | O             18         0.000000              0.000       F       |
         | O             19         0.000000              0.000       F       |
         | O             20         0.000000              0.000       F       |
         | O             21         0.000000              0.000       F       |
         | O             22         0.000000              0.000       F       |
         | O             23         0.000000              0.000       F       |
         | O             24         0.000000              0.000       F       |
         | O             25         0.000000              0.000       F       |
         | O             26         0.000000              0.000       F       |
         | O             27         0.000000              0.000       F       |
         | O             28         0.000000              0.000       F       |
         | O             29         0.000000              0.000       F       |
         | O             30         0.000000              0.000       F       |
         | O             31         0.000000              0.000       F       |
         | O             32         0.000000              0.000       F       |
         | O             33         0.000000              0.000       F       |
         | O             34         0.000000              0.000       F       |
         | O             35         0.000000              0.000       F       |
         | O             36         0.000000              0.000       F       |
         | O             37         0.000000              0.000       F       |
         | O             38         0.000000              0.000       F       |
         | O             39         0.000000              0.000       F       |
         | O             40         0.000000              0.000       F       |
         | O             41         0.000000              0.000       F       |
         | O             42         0.000000              0.000       F       |
         | V              1         0.076923              1.000       F       |
         | V              2         0.076923              1.000       F       |
         | V              3         0.076923              1.000       F       |
         | V              4         0.076923              1.000       F       |
         | V              5         0.076923              1.000       F       |
         | V              6         0.076923              1.000       F       |
         | V              7         0.076923              1.000       F       |
         | V              8         0.076923              1.000       F       |
         | V              9         0.076923              1.000       F       |
         | V             10         0.076923              1.000       F       |
         | V             11         0.076923              1.000       F       |
         | V             12         0.076923              1.000       F       |
         | Fe             1         0.562500              4.500       F       |
         | Fe             2         0.562500              4.500       F       |
         | Fe             3         0.562500              4.500       F       |
         | Fe             4         0.562500              4.500       F       |
         | Fe             5         0.562500              4.500       F       |
         | Fe             6         0.562500              4.500       F       |
         xxxxxxxxxxxxxxxxxxxxxxxxxxxxxxxxxxxxxxxxxxxxxxxxxxxxxxxxxxxxxxxxxxxxxx



         Quantisation axis:    0.00000   0.00000   1.00000

         Units for Hubbard U values are eV
         xxxxxxxxxxxxxxxxxxxxxxxxxxxxxxxxxxxxxxxxxxxxxxxxxxxxxxxxxxxxxxxxxxxx
         |  Element     Atom     Hubbard U   values by orbital type         |
         |             Number      s          p          d          f       |
         |------------------------------------------------------------------|
         |Li            1         0.00000    0.00000    0.00000    0.00000  |
         |Li            2         0.00000    0.00000    0.00000    0.00000  |
         |Li            3         0.00000    0.00000    0.00000    0.00000  |
         |Li            4         0.00000    0.00000    0.00000    0.00000  |
         |Li            5         0.00000    0.00000    0.00000    0.00000  |
         |Li            6         0.00000    0.00000    0.00000    0.00000  |
         |Li            7         0.00000    0.00000    0.00000    0.00000  |
         |Li            8         0.00000    0.00000    0.00000    0.00000  |
         |Li            9         0.00000    0.00000    0.00000    0.00000  |
         |Li           10         0.00000    0.00000    0.00000    0.00000  |
         |O             1         0.00000    0.00000    0.00000    0.00000  |
         |O             2         0.00000    0.00000    0.00000    0.00000  |
         |O             3         0.00000    0.00000    0.00000    0.00000  |
         |O             4         0.00000    0.00000    0.00000    0.00000  |
         |O             5         0.00000    0.00000    0.00000    0.00000  |
         |O             6         0.00000    0.00000    0.00000    0.00000  |
         |O             7         0.00000    0.00000    0.00000    0.00000  |
         |O             8         0.00000    0.00000    0.00000    0.00000  |
         |O             9         0.00000    0.00000    0.00000    0.00000  |
         |O            10         0.00000    0.00000    0.00000    0.00000  |
         |O            11         0.00000    0.00000    0.00000    0.00000  |
         |O            12         0.00000    0.00000    0.00000    0.00000  |
         |O            13         0.00000    0.00000    0.00000    0.00000  |
         |O            14         0.00000    0.00000    0.00000    0.00000  |
         |O            15         0.00000    0.00000    0.00000    0.00000  |
         |O            16         0.00000    0.00000    0.00000    0.00000  |
         |O            17         0.00000    0.00000    0.00000    0.00000  |
         |O            18         0.00000    0.00000    0.00000    0.00000  |
         |O            19         0.00000    0.00000    0.00000    0.00000  |
         |O            20         0.00000    0.00000    0.00000    0.00000  |
         |O            21         0.00000    0.00000    0.00000    0.00000  |
         |O            22         0.00000    0.00000    0.00000    0.00000  |
         |O            23         0.00000    0.00000    0.00000    0.00000  |
         |O            24         0.00000    0.00000    0.00000    0.00000  |
         |O            25         0.00000    0.00000    0.00000    0.00000  |
         |O            26         0.00000    0.00000    0.00000    0.00000  |
         |O            27         0.00000    0.00000    0.00000    0.00000  |
         |O            28         0.00000    0.00000    0.00000    0.00000  |
         |O            29         0.00000    0.00000    0.00000    0.00000  |
         |O            30         0.00000    0.00000    0.00000    0.00000  |
         |O            31         0.00000    0.00000    0.00000    0.00000  |
         |O            32         0.00000    0.00000    0.00000    0.00000  |
         |O            33         0.00000    0.00000    0.00000    0.00000  |
         |O            34         0.00000    0.00000    0.00000    0.00000  |
         |O            35         0.00000    0.00000    0.00000    0.00000  |
         |O            36         0.00000    0.00000    0.00000    0.00000  |
         |O            37         0.00000    0.00000    0.00000    0.00000  |
         |O            38         0.00000    0.00000    0.00000    0.00000  |
         |O            39         0.00000    0.00000    0.00000    0.00000  |
         |O            40         0.00000    0.00000    0.00000    0.00000  |
         |O            41         0.00000    0.00000    0.00000    0.00000  |
         |O            42         0.00000    0.00000    0.00000    0.00000  |
         |V             1         0.00000    0.00000    3.25000    0.00000  |
         |V             2         0.00000    0.00000    3.25000    0.00000  |
         |V             3         0.00000    0.00000    3.25000    0.00000  |
         |V             4         0.00000    0.00000    3.25000    0.00000  |
         |V             5         0.00000    0.00000    3.25000    0.00000  |
         |V             6         0.00000    0.00000    3.25000    0.00000  |
         |V             7         0.00000    0.00000    3.25000    0.00000  |
         |V             8         0.00000    0.00000    3.25000    0.00000  |
         |V             9         0.00000    0.00000    3.25000    0.00000  |
         |V            10         0.00000    0.00000    3.25000    0.00000  |
         |V            11         0.00000    0.00000    3.25000    0.00000  |
         |V            12         0.00000    0.00000    3.25000    0.00000  |
         |Fe            1         0.00000    0.00000    5.30000    0.00000  |
         |Fe            2         0.00000    0.00000    5.30000    0.00000  |
         |Fe            3         0.00000    0.00000    5.30000    0.00000  |
         |Fe            4         0.00000    0.00000    5.30000    0.00000  |
         |Fe            5         0.00000    0.00000    5.30000    0.00000  |
         |Fe            6         0.00000    0.00000    5.30000    0.00000  |
         xxxxxxxxxxxxxxxxxxxxxxxxxxxxxxxxxxxxxxxxxxxxxxxxxxxxxxxxxxxxxxxxxxxx


                          Files used for pseudopotentials:
                                    Li 1|1.0|14|16|18|10U:20(qc=7)
                                    O 2|1.1|17|20|23|20:21(qc=8)
                                    V 3|1.8|1.8|0.6|12|14|16|30U:40:31:32(qc=7)
                                    Fe 3|2.4|2.4|1.0|8|9|10|40:41:32U2U2(qc=5.5)

                           -------------------------------
                              k-Points For BZ Sampling
                           -------------------------------
                       MP grid size for SCF calculation is  3  3  2
                            with an offset of   0.000  0.000  0.000
                       Number of kpoints used =             9

                           -------------------------------
                               Symmetry and Constraints
                           -------------------------------

                      Maximum deviation from symmetry =  0.00000         ANG

                      Number of symmetry operations   =           1
                      Number of ionic constraints     =           3
                      Point group of crystal =     1: C1, 1, 1
                      Space group of crystal =     9: Cc, C -2yc

             Set iprint > 1 for details on symmetry rotations/translations

                         Centre of mass is constrained
             Set iprint > 2 for details of linear ionic constraints

                         Number of cell constraints= 0
                         Cell constraints are:  1 2 3 4 5 6

                         External pressure/stress (GPa)
                          0.00000   0.00000   0.00000
                                    0.00000   0.00000
                                              0.00000
 
+---------------- MEMORY AND SCRATCH DISK ESTIMATES PER PROCESS --------------+
|                                                     Memory          Disk    |
| Baseline code, static data and system overhead      817.0 MB         0.0 MB |
| BLAS internal memory storage                          0.0 MB         0.0 MB |
| Model and support data                              564.3 MB         0.0 MB |
| Electronic energy minimisation requirements         726.5 MB         0.0 MB |
| Force calculation requirements                        6.4 MB         0.0 MB |
|                                               ----------------------------- |
| Approx. total storage required per process         2107.9 MB         0.0 MB |
|                                                                             |
| Requirements will fluctuate during execution and may exceed these estimates |
+-----------------------------------------------------------------------------+
Calculating approximate eigenstates for fixed initial Hamiltonian
Cut-off for approx. calculation is  375.902 eV
Resetting cut-off to  900.000 eV
Improving states further at cut-off of  900.000 eV
Calculating total energy with cut-off of  900.000 eV.

 Pseudo atomic calculation performed for Li 1s2 2s1

 Converged in 18 iterations to a total energy of -200.5098 eV

 Pseudo atomic calculation performed for O 2s2 2p4

 Converged in 24 iterations to a total energy of -432.3399 eV

 Pseudo atomic calculation performed for V 3s2 3p6 3d3 4s2

 Converged in 36 iterations to a total energy of -2065.8041 eV

 Pseudo atomic calculation performed for Fe 3d6 4s2

 Converged in 34 iterations to a total energy of -853.8318 eV
------------------------------------------------------------------------ <-- SCF
SCF loop      Energy           Fermi           Energy gain       Timer   <-- SCF
                               energy          per atom          (sec)   <-- SCF
------------------------------------------------------------------------ <-- SCF
Initial  -4.71932892E+004  6.67231634E+000                       175.36  <-- SCF
      1  -5.05112793E+004  3.83193156E+000   4.73998585E+001     819.33  <-- SCF
      2  -5.05685454E+004  3.32222477E+000   8.18086961E-001    1575.67  <-- SCF
      3  -5.05703826E+004  3.19577348E+000   2.62459034E-002    2156.54  <-- SCF
      4  -5.05704647E+004  3.18800064E+000   1.17235390E-003    2528.07  <-- SCF
      5  -5.05704711E+004  3.18315784E+000   9.11382113E-005    2919.46  <-- SCF
      6  -5.05704745E+004  3.17732543E+000   4.88001533E-005    3335.21  <-- SCF
      7  -5.05704753E+004  3.17559928E+000   1.08103741E-005    3756.99  <-- SCF
      8  -5.05704760E+004  3.17393114E+000   1.01723639E-005    4186.38  <-- SCF
      9  -5.05704766E+004  3.17232087E+000   9.77247843E-006    4611.27  <-- SCF
     10  -5.05449120E+004  3.97081608E+000  -3.65209348E-001    5113.08  <-- SCF
     11  -5.05509202E+004  3.78546250E+000   8.58313762E-002    5939.02  <-- SCF
     12  -5.05514643E+004  3.69740134E+000   7.77275205E-003    6753.39  <-- SCF
     13  -5.05519206E+004  3.61547845E+000   6.51870019E-003    7560.39  <-- SCF
     14  -5.05521362E+004  3.43712711E+000   3.08064149E-003    8314.68  <-- SCF
     15  -5.05521529E+004  3.43400179E+000   2.38063792E-004    8957.66  <-- SCF
     16  -5.05521588E+004  3.42822431E+000   8.46299116E-005    9667.98  <-- SCF
     17  -5.05521640E+004  3.42641852E+000   7.37984266E-005   10370.42  <-- SCF
     18  -5.05521671E+004  3.42424925E+000   4.38318713E-005   10996.81  <-- SCF
     19  -5.05521705E+004  3.42281908E+000   4.98116135E-005   11701.89  <-- SCF
     20  -5.05521738E+004  3.42093675E+000   4.70046984E-005   12403.57  <-- SCF
     21  -5.05521776E+004  3.41943926E+000   5.37536394E-005   13054.05  <-- SCF
     22  -5.05521814E+004  3.41755998E+000   5.44183458E-005   13749.30  <-- SCF
     23  -5.05521853E+004  3.41594995E+000   5.60674406E-005   14460.77  <-- SCF
     24  -5.05521887E+004  3.41465323E+000   4.85525418E-005   15113.93  <-- SCF
     25  -5.05521920E+004  3.41346935E+000   4.73425468E-005   15835.07  <-- SCF
     26  -5.05521964E+004  3.41193881E+000   6.21373766E-005   16576.40  <-- SCF
     27  -5.05522005E+004  3.41078764E+000   5.79293239E-005   17329.03  <-- SCF
     28  -5.05522032E+004  3.41013362E+000   3.88079590E-005   18011.23  <-- SCF
     29  -5.05522049E+004  3.40983960E+000   2.48195385E-005   18733.45  <-- SCF
     30  -5.05522064E+004  3.40964032E+000   2.16843781E-005   19415.10  <-- SCF
     31  -5.05522080E+004  3.40951017E+000   2.23707314E-005   20222.06  <-- SCF
     32  -5.05522088E+004  3.40956940E+000   1.22135407E-005   21079.88  <-- SCF
     33  -5.05522094E+004  3.40965951E+000   8.45797634E-006   21807.10  <-- SCF
     34  -5.05522098E+004  3.40977051E+000   5.71503451E-006   22622.72  <-- SCF
     35  -5.05522102E+004  3.40995793E+000   5.07957926E-006   23446.88  <-- SCF
     36  -5.05522104E+004  3.41005640E+000   2.73539563E-006   24224.14  <-- SCF
     37  -5.05522105E+004  3.41019438E+000   2.18232541E-006   24916.80  <-- SCF
     38  -5.05522106E+004  3.41030334E+000   1.42508224E-006   25675.54  <-- SCF
     39  -5.05522107E+004  3.41040593E+000   1.08506796E-006   26344.01  <-- SCF
     40  -5.05522108E+004  3.41048857E+000   6.92150077E-007   27083.88  <-- SCF
     41  -5.05522108E+004  3.41055289E+000   5.09685900E-007   27738.53  <-- SCF
     42  -5.05522108E+004  3.41061483E+000   4.27551357E-007   28461.19  <-- SCF
------------------------------------------------------------------------ <-- SCF
 
Integrated Spin Density     =     26.0000     hbar/2
Integrated |Spin Density|   =     26.6338     hbar/2
 

     Hubbard U occupation numbers
     ----------------------------
Species   Ion   l  spin               occupancies
==================================================================
  V        1    2   up:   0.42  0.44  0.48  0.51  0.52
                    dn:   0.38  0.41  0.46  0.49  0.50
  V        2    2   up:   0.42  0.44  0.48  0.51  0.52
                    dn:   0.38  0.41  0.46  0.49  0.50
  V        3    2   up:   0.33  0.42  0.51  0.52  0.53
                    dn:   0.27  0.40  0.50  0.51  0.52
  V        4    2   up:   0.33  0.42  0.51  0.52  0.53
                    dn:   0.27  0.40  0.50  0.51  0.52
  V        5    2   up:   0.42  0.44  0.47  0.51  0.53
                    dn:   0.38  0.40  0.45  0.48  0.52
  V        6    2   up:   0.42  0.44  0.47  0.51  0.53
                    dn:   0.38  0.40  0.45  0.48  0.52
  V        7    2   up:   0.38  0.42  0.50  0.51  0.54
                    dn:   0.32  0.39  0.49  0.50  0.50
  V        8    2   up:   0.38  0.42  0.50  0.51  0.54
                    dn:   0.32  0.39  0.49  0.50  0.50
  V        9    2   up:   0.43  0.44  0.48  0.52  0.52
                    dn:   0.38  0.42  0.45  0.48  0.49
  V       10    2   up:   0.43  0.44  0.48  0.52  0.52
                    dn:   0.38  0.42  0.45  0.48  0.49
  V       11    2   up:   0.41  0.43  0.48  0.52  0.52
                    dn:   0.38  0.42  0.47  0.49  0.51
  V       12    2   up:   0.41  0.43  0.48  0.52  0.52
                    dn:   0.38  0.42  0.47  0.49  0.51
  Fe       1    2   up:   0.97  0.98  0.99  1.00  1.00
                    dn:   0.06  0.06  0.19  0.21  0.95
  Fe       2    2   up:   0.97  0.98  0.99  1.00  1.00
                    dn:   0.06  0.06  0.19  0.21  0.95
  Fe       3    2   up:   0.99  0.99  1.00  1.00  1.00
                    dn:   0.10  0.11  0.11  0.39  0.40
  Fe       4    2   up:   0.99  0.99  1.00  1.00  1.00
                    dn:   0.10  0.11  0.11  0.39  0.40
  Fe       5    2   up:   0.99  0.99  1.00  1.00  1.00
                    dn:   0.04  0.05  0.13  0.16  0.98
  Fe       6    2   up:   0.99  0.99  1.00  1.00  1.00
                    dn:   0.04  0.05  0.13  0.16  0.98
==================================================================

Final energy, E             =  -50552.21059726     eV
Final free energy (E-TS)    =  -50552.21082640     eV
(energies not corrected for finite basis set)
 
NB est. 0K energy (E-0.5TS)      =  -50552.21071183     eV
 

Writing analysis data to ml_dos.castep_bin

Writing model to ml_dos.check
 
+---------------- MEMORY AND SCRATCH DISK ESTIMATES PER PROCESS --------------+
|                                                     Memory          Disk    |
|                                               ----------------------------- |
| Approx. total storage required per process         1629.2 MB         0.0 MB |
|                                                                             |
| Requirements will fluctuate during execution and may exceed these estimates |
+-----------------------------------------------------------------------------+
 
  =====================================================================
  +                                                                   +
  +                 Calculation of Spectral Properties                +
  +                                                                   +
  + Calculation re-parallelised over 36 processes.                    +
  + There are 9 k-points distributed across 9 k-point groups.         +
  + Data distributed by G-vector(4-way), k-point(9-way), band(1-way)  +
  + Data distributed by G-vector(4-way), k-point(9-way)               +
  +                                                                   +
  =====================================================================

 Pseudo atomic calculation performed for Li 1s2 2s1

 Converged in 18 iterations to a total energy of -200.5098 eV

 Pseudo atomic calculation performed for O 2s2 2p4

 Converged in 24 iterations to a total energy of -432.3399 eV

 Pseudo atomic calculation performed for V 3s2 3p6 3d3 4s2

 Converged in 36 iterations to a total energy of -2065.8041 eV

 Pseudo atomic calculation performed for Fe 3d6 4s2

 Converged in 34 iterations to a total energy of -853.8318 eV

 Pseudo atomic calculation performed for Li 1s2 2s1

 Converged in 18 iterations to a total energy of -200.5098 eV

 Pseudo atomic calculation performed for O 2s2 2p4

 Converged in 24 iterations to a total energy of -432.3399 eV

 Pseudo atomic calculation performed for V 3s2 3p6 3d3 4s2

 Converged in 36 iterations to a total energy of -2065.8041 eV

 Pseudo atomic calculation performed for Fe 3d6 4s2

 Converged in 34 iterations to a total energy of -853.8318 eV
  Starting k-point:        1 of        1 Time:      0.00 sec  |<-- SPEC

 Pseudo atomic calculation performed for Li 1s2 2s1

 Converged in 18 iterations to a total energy of -200.5098 eV

 Pseudo atomic calculation performed for O 2s2 2p4

 Converged in 24 iterations to a total energy of -432.3399 eV

 Pseudo atomic calculation performed for V 3s2 3p6 3d3 4s2

 Converged in 36 iterations to a total energy of -2065.8041 eV

 Pseudo atomic calculation performed for Fe 3d6 4s2

 Converged in 34 iterations to a total energy of -853.8318 eV
  Starting k-point:        1 of        1 Time:    386.54 sec  |<-- SPEC

 Pseudo atomic calculation performed for Li 1s2 2s1

 Converged in 18 iterations to a total energy of -200.5098 eV

 Pseudo atomic calculation performed for O 2s2 2p4

 Converged in 24 iterations to a total energy of -432.3399 eV

 Pseudo atomic calculation performed for V 3s2 3p6 3d3 4s2

 Converged in 36 iterations to a total energy of -2065.8041 eV

 Pseudo atomic calculation performed for Fe 3d6 4s2

 Converged in 34 iterations to a total energy of -853.8318 eV
  Check-pointing spectral run                                 |<-- SPEC
  Total time to compute matrix elements            716.81 sec |<-- SPEC
  
  + Calculation re-parallelised over 40 processes.                    +
  + Data distributed by G-vector(40-way)                              +

 Pseudo atomic calculation performed for Li 1s2 2s1

 Converged in 18 iterations to a total energy of -200.5098 eV

 Pseudo atomic calculation performed for O 2s2 2p4

 Converged in 24 iterations to a total energy of -432.3399 eV

 Pseudo atomic calculation performed for V 3s2 3p6 3d3 4s2

 Converged in 36 iterations to a total energy of -2065.8041 eV

 Pseudo atomic calculation performed for Fe 3d6 4s2

 Converged in 34 iterations to a total energy of -853.8318 eV

 ************************** Forces **************************
 *                                                          *
 *               Cartesian components (eV/A)                *
 * -------------------------------------------------------- *
 *                         x            y            z      *
 *                                                          *
 * Li              1     -0.08198     -0.12991     -0.04829 *
 * Li              2     -0.15252     -0.01261     -0.04860 *
 * Li              3      0.08017      0.03324     -0.05220 *
 * Li              4      0.06625      0.05509     -0.05160 *
 * Li              5     -0.00684     -0.10451     -0.00466 *
 * Li              6     -0.09670      0.04301     -0.00398 *
 * Li              7      0.08034      0.07399      0.03074 *
 * Li              8      0.10402      0.03645      0.03105 *
 * Li              9     -0.02246      0.01360      0.11288 *
 * Li             10      0.00192     -0.02675      0.11347 *
 * O               1      0.11963      0.37055      0.06936 *
 * O               2      0.38190     -0.06856      0.06812 *
 * O               3      0.47591     -0.09884      0.04264 *
 * O               4      0.13337      0.46373      0.04460 *
 * O               5      0.17033     -0.11291      0.53587 *
 * O               6     -0.01830      0.20209      0.53648 *
 * O               7      0.12231     -0.23626      0.43318 *
 * O               8     -0.15096      0.21730      0.43393 *
 * O               9      0.42634     -2.06723     -1.24470 *
 * O              10     -1.62747      1.34206     -1.24245 *
 * O              11      0.13839     -0.62668     -0.29550 *
 * O              12     -0.48857      0.41429     -0.29602 *
 * O              13     -0.05355      0.15235      0.02496 *
 * O              14      0.10733     -0.11876      0.02279 *
 * O              15      0.95259      1.29361     -0.17675 *
 * O              16      1.59131      0.23865     -0.17481 *
 * O              17      0.64602      1.06023      0.94872 *
 * O              18      1.23800      0.07824      0.94817 *
 * O              19      0.57589     -0.83351      0.40590 *
 * O              20     -0.46693      0.89974      0.40830 *
 * O              21      0.36923     -0.86646     -0.46718 *
 * O              22     -0.59295      0.73230     -0.46889 *
 * O              23     -0.01452      0.21736     -0.05161 *
 * O              24      0.18778     -0.11554     -0.05208 *
 * O              25      0.05010      0.12613     -0.01508 *
 * O              26      0.13508     -0.01288     -0.01416 *
 * O              27     -0.59877      0.16026     -0.20457 *
 * O              28     -0.13889     -0.60593     -0.20218 *
 * O              29     -0.66885      0.71336     -1.82827 *
 * O              30      0.31834     -0.92575     -1.82895 *
 * O              31      1.75843     -1.62250      1.34955 *
 * O              32     -0.61104      2.31239      1.35178 *
 * O              33     -0.10400      0.42265      0.30694 *
 * O              34      0.32302     -0.28857      0.30855 *
 * O              35     -0.17759     -0.00004     -0.24677 *
 * O              36     -0.08524     -0.15567     -0.24758 *
 * O              37     -0.04066      0.04775     -0.28466 *
 * O              38      0.02407     -0.06066     -0.28325 *
 * O              39     -1.99961     -0.13704     -0.01369 *
 * O              40     -1.05399     -1.70151     -0.01306 *
 * O              41     -0.20305      0.11667     -0.04384 *
 * O              42      0.00674     -0.23605     -0.04578 *
 * V               1     -0.00937     -0.24296      0.89821 *
 * V               2     -0.22132      0.10502      0.90998 *
 * V               3     -0.76738     -0.03434     -0.33263 *
 * V               4     -0.39371     -0.64993     -0.32169 *
 * V               5     -0.88636      0.85307     -0.27178 *
 * V               6      0.33967     -1.19191     -0.27599 *
 * V               7     -0.67198      0.45057     -0.10012 *
 * V               8      0.07534     -0.79768     -0.10876 *
 * V               9      0.95256     -0.01168      0.26448 *
 * V              10      0.44048      0.84650      0.26838 *
 * V              11      0.01143      0.89037      0.25299 *
 * V              12      0.79116     -0.40855      0.25986 *
 * Fe              1     -0.31338      0.07115     -0.04186 *
 * Fe              2     -0.08401     -0.31171     -0.03892 *
 * Fe              3      0.02906     -0.01176     -0.04952 *
 * Fe              4      0.00363      0.03022     -0.05102 *
 * Fe              5     -0.16110     -0.21420      0.08061 *
 * Fe              6     -0.26416     -0.04412      0.08093 *
 *                                                          *
 ************************************************************

 Pseudo atomic calculation performed for Li 1s2 2s1

 Converged in 18 iterations to a total energy of -200.5098 eV

 Pseudo atomic calculation performed for O 2s2 2p4

 Converged in 24 iterations to a total energy of -432.3399 eV

 Pseudo atomic calculation performed for V 3s2 3p6 3d3 4s2

 Converged in 36 iterations to a total energy of -2065.8041 eV

 Pseudo atomic calculation performed for Fe 3d6 4s2

 Converged in 34 iterations to a total energy of -853.8318 eV
Charge spilling parameter for spin component 1 = 0.15%
Charge spilling parameter for spin component 2 = 0.15%

                   Orbital Populations                  
  ---------------------------------------------------------------
     Ion    Atom   Orbital              Up        Down      Spin
  ---------------------------------------------------------------
     Li     1      S                    1.001     1.001     0.000
     Li     1      S                    0.011     0.011    -0.001
     Li     1      Px                   0.053     0.055    -0.002
     Li     1      Py                   0.048     0.048    -0.000
     Li     1      Pz                   0.032     0.033    -0.000
     Li     2      S                    1.001     1.001     0.000
     Li     2      S                    0.011     0.011    -0.001
     Li     2      Px                   0.053     0.052     0.001
     Li     2      Py                   0.047     0.051    -0.004
     Li     2      Pz                   0.032     0.033    -0.000
     Li     3      S                    1.001     1.001     0.000
     Li     3      S                    0.003     0.009    -0.006
     Li     3      Px                   0.029     0.032    -0.003
     Li     3      Py                   0.028     0.034    -0.006
     Li     3      Pz                   0.037     0.041    -0.004
     Li     4      S                    1.001     1.001     0.000
     Li     4      S                    0.003     0.009    -0.006
     Li     4      Px                   0.017     0.022    -0.005
     Li     4      Py                   0.040     0.044    -0.004
     Li     4      Pz                   0.037     0.041    -0.004
     Li     5      S                    1.000     1.000     0.000
     Li     5      S                    0.004     0.008    -0.004
     Li     5      Px                   0.026     0.028    -0.002
     Li     5      Py                   0.033     0.036    -0.003
     Li     5      Pz                   0.041     0.043    -0.002
     Li     6      S                    1.000     1.000     0.000
     Li     6      S                    0.004     0.008    -0.004
     Li     6      Px                   0.018     0.020    -0.003
     Li     6      Py                   0.041     0.044    -0.003
     Li     6      Pz                   0.041     0.043    -0.002
     Li     7      S                    1.001     1.001     0.000
     Li     7      S                   -0.008    -0.000    -0.007
     Li     7      Px                   0.070     0.072    -0.002
     Li     7      Py                   0.037     0.039    -0.001
     Li     7      Pz                   0.035     0.042    -0.007
     Li     8      S                    1.001     1.001     0.000
     Li     8      S                   -0.008    -0.000    -0.007
     Li     8      Px                   0.048     0.050    -0.002
     Li     8      Py                   0.060     0.060    -0.001
     Li     8      Pz                   0.035     0.042    -0.007
     Li     9      S                    1.002     1.002     0.000
     Li     9      S                   -0.023    -0.007    -0.015
     Li     9      Px                   0.058     0.067    -0.009
     Li     9      Py                   0.037     0.042    -0.006
     Li     9      Pz                   0.035     0.045    -0.010
     Li    10      S                    1.002     1.002     0.000
     Li    10      S                   -0.023    -0.007    -0.015
     Li    10      Px                   0.037     0.047    -0.009
     Li    10      Py                   0.058     0.063    -0.005
     Li    10      Pz                   0.035     0.045    -0.010
      O     1      S                    0.939     0.931     0.008
      O     1      Px                   0.831     0.791     0.040
      O     1      Py                   0.779     0.762     0.017
      O     1      Pz                   0.835     0.817     0.019
      O     2      S                    0.939     0.931     0.008
      O     2      Px                   0.770     0.737     0.034
      O     2      Py                   0.840     0.817     0.023
      O     2      Pz                   0.835     0.817     0.019
      O     3      S                    0.938     0.935     0.003
      O     3      Px                   0.757     0.759    -0.003
      O     3      Py                   0.813     0.815    -0.002
      O     3      Pz                   0.823     0.825    -0.002
      O     4      S                    0.938     0.935     0.003
      O     4      Px                   0.803     0.809    -0.005
      O     4      Py                   0.767     0.766     0.000
      O     4      Pz                   0.823     0.825    -0.002
      O     5      S                    0.937     0.935     0.002
      O     5      Px                   0.822     0.822    -0.000
      O     5      Py                   0.822     0.826    -0.004
      O     5      Pz                   0.764     0.766    -0.002
      O     6      S                    0.937     0.935     0.002
      O     6      Px                   0.823     0.825    -0.002
      O     6      Py                   0.822     0.824    -0.002
      O     6      Pz                   0.764     0.766    -0.002
      O     7      S                    0.935     0.927     0.008
      O     7      Px                   0.837     0.810     0.027
      O     7      Py                   0.830     0.802     0.028
      O     7      Pz                   0.770     0.757     0.012
      O     8      S                    0.935     0.927     0.008
      O     8      Px                   0.832     0.820     0.012
      O     8      Py                   0.835     0.792     0.042
      O     8      Pz                   0.770     0.757     0.012
      O     9      S                    0.936     0.930     0.006
      O     9      Px                   0.820     0.821    -0.001
      O     9      Py                   0.772     0.773    -0.000
      O     9      Pz                   0.810     0.810     0.001
      O    10      S                    0.936     0.930     0.006
      O    10      Px                   0.799     0.800    -0.001
      O    10      Py                   0.794     0.794    -0.000
      O    10      Pz                   0.810     0.810     0.001
      O    11      S                    0.939     0.928     0.011
      O    11      Px                   0.823     0.812     0.011
      O    11      Py                   0.775     0.753     0.022
      O    11      Pz                   0.813     0.789     0.024
      O    12      S                    0.939     0.928     0.011
      O    12      Px                   0.799     0.779     0.020
      O    12      Py                   0.799     0.786     0.013
      O    12      Pz                   0.813     0.789     0.024
      O    13      S                    0.926     0.927    -0.001
      O    13      Px                   0.770     0.773    -0.002
      O    13      Py                   0.810     0.813    -0.003
      O    13      Pz                   0.805     0.809    -0.004
      O    14      S                    0.926     0.927    -0.001
      O    14      Px                   0.780     0.784    -0.004
      O    14      Py                   0.801     0.802    -0.001
      O    14      Pz                   0.805     0.809    -0.004
      O    15      S                    0.939     0.933     0.006
      O    15      Px                   0.825     0.825    -0.001
      O    15      Py                   0.784     0.776     0.008
      O    15      Pz                   0.830     0.827     0.003
      O    16      S                    0.939     0.933     0.006
      O    16      Px                   0.780     0.776     0.004
      O    16      Py                   0.829     0.825     0.004
      O    16      Pz                   0.830     0.827     0.003
      O    17      S                    0.939     0.934     0.005
      O    17      Px                   0.814     0.816    -0.002
      O    17      Py                   0.828     0.841    -0.013
      O    17      Pz                   0.762     0.765    -0.003
      O    18      S                    0.939     0.934     0.005
      O    18      Px                   0.798     0.817    -0.019
      O    18      Py                   0.843     0.839     0.004
      O    18      Pz                   0.762     0.765    -0.003
      O    19      S                    0.943     0.943    -0.000
      O    19      Px                   0.766     0.772    -0.006
      O    19      Py                   0.764     0.765    -0.001
      O    19      Pz                   0.782     0.788    -0.005
      O    20      S                    0.943     0.943    -0.000
      O    20      Px                   0.781     0.784    -0.003
      O    20      Py                   0.749     0.753    -0.004
      O    20      Pz                   0.783     0.788    -0.005
      O    21      S                    0.940     0.937     0.003
      O    21      Px                   0.797     0.798    -0.001
      O    21      Py                   0.751     0.759    -0.008
      O    21      Pz                   0.787     0.800    -0.014
      O    22      S                    0.940     0.937     0.003
      O    22      Px                   0.773     0.778    -0.005
      O    22      Py                   0.775     0.779    -0.004
      O    22      Pz                   0.787     0.801    -0.014
      O    23      S                    0.926     0.927    -0.001
      O    23      Px                   0.775     0.779    -0.003
      O    23      Py                   0.804     0.806    -0.002
      O    23      Pz                   0.812     0.813    -0.001
      O    24      S                    0.926     0.927    -0.001
      O    24      Px                   0.774     0.777    -0.003
      O    24      Py                   0.806     0.808    -0.002
      O    24      Pz                   0.812     0.813    -0.001
      O    25      S                    0.928     0.925     0.003
      O    25      Px                   0.793     0.793    -0.000
      O    25      Py                   0.805     0.803     0.002
      O    25      Pz                   0.819     0.817     0.002
      O    26      S                    0.928     0.925     0.003
      O    26      Px                   0.777     0.776     0.001
      O    26      Py                   0.821     0.821     0.000
      O    26      Pz                   0.819     0.817     0.002
      O    27      S                    0.939     0.939    -0.000
      O    27      Px                   0.757     0.757    -0.000
      O    27      Py                   0.804     0.804    -0.001
      O    27      Pz                   0.813     0.814    -0.000
      O    28      S                    0.939     0.939    -0.000
      O    28      Px                   0.803     0.803     0.000
      O    28      Py                   0.758     0.759    -0.001
      O    28      Pz                   0.813     0.814    -0.000
      O    29      S                    0.938     0.934     0.004
      O    29      Px                   0.809     0.822    -0.013
      O    29      Py                   0.807     0.817    -0.011
      O    29      Pz                   0.751     0.755    -0.004
      O    30      S                    0.938     0.934     0.004
      O    30      Px                   0.813     0.817    -0.005
      O    30      Py                   0.803     0.822    -0.019
      O    30      Pz                   0.751     0.754    -0.004
      O    31      S                    0.941     0.935     0.007
      O    31      Px                   0.779     0.788    -0.009
      O    31      Py                   0.782     0.784    -0.002
      O    31      Pz                   0.789     0.808    -0.019
      O    32      S                    0.941     0.935     0.007
      O    32      Px                   0.804     0.807    -0.003
      O    32      Py                   0.757     0.765    -0.007
      O    32      Pz                   0.789     0.808    -0.019
      O    33      S                    0.934     0.924     0.010
      O    33      Px                   0.831     0.823     0.008
      O    33      Py                   0.783     0.766     0.017
      O    33      Pz                   0.830     0.801     0.029
      O    34      S                    0.934     0.924     0.010
      O    34      Px                   0.809     0.792     0.017
      O    34      Py                   0.806     0.797     0.008
      O    34      Pz                   0.830     0.800     0.029
      O    35      S                    0.940     0.931     0.009
      O    35      Px                   0.817     0.777     0.041
      O    35      Py                   0.856     0.828     0.028
      O    35      Pz                   0.786     0.768     0.018
      O    36      S                    0.940     0.931     0.009
      O    36      Px                   0.827     0.816     0.011
      O    36      Py                   0.847     0.789     0.058
      O    36      Pz                   0.787     0.768     0.018
      O    37      S                    0.937     0.935     0.002
      O    37      Px                   0.810     0.822    -0.011
      O    37      Py                   0.837     0.835     0.001
      O    37      Pz                   0.764     0.767    -0.003
      O    38      S                    0.937     0.935     0.002
      O    38      Px                   0.824     0.825    -0.001
      O    38      Py                   0.823     0.832    -0.009
      O    38      Pz                   0.764     0.767    -0.003
      O    39      S                    0.940     0.935     0.004
      O    39      Px                   0.750     0.761    -0.011
      O    39      Py                   0.819     0.822    -0.003
      O    39      Pz                   0.818     0.822    -0.004
      O    40      S                    0.940     0.935     0.004
      O    40      Px                   0.808     0.817    -0.009
      O    40      Py                   0.761     0.766    -0.005
      O    40      Pz                   0.818     0.822    -0.004
      O    41      S                    0.940     0.934     0.006
      O    41      Px                   0.780     0.742     0.039
      O    41      Py                   0.832     0.810     0.022
      O    41      Pz                   0.829     0.806     0.023
      O    42      S                    0.940     0.934     0.006
      O    42      Px                   0.835     0.794     0.042
      O    42      Py                   0.777     0.759     0.018
      O    42      Pz                   0.829     0.806     0.023
      V     1      S                    0.995     0.995    -0.000
      V     1      Px                   0.994     0.994    -0.000
      V     1      Py                   0.995     0.995    -0.000
      V     1      Pz                   0.995     0.995    -0.000
      V     1      Dzz                  0.370     0.327     0.043
      V     1      Dzy                  0.316     0.293     0.023
      V     1      Dzx                  0.341     0.301     0.039
      V     1      Dxx-yy               0.328     0.311     0.017
      V     1      Dxy                  0.318     0.287     0.031
      V     1      S                    0.111     0.106     0.004
      V     1      Px                   0.090     0.087     0.003
      V     1      Py                   0.105     0.101     0.003
      V     1      Pz                   0.075     0.072     0.003
      V     2      S                    0.995     0.995    -0.000
      V     2      Px                   0.995     0.995    -0.000
      V     2      Py                   0.994     0.994    -0.000
      V     2      Pz                   0.995     0.995    -0.000
      V     2      Dzz                  0.370     0.327     0.043
      V     2      Dzy                  0.341     0.294     0.047
      V     2      Dzx                  0.316     0.301     0.016
      V     2      Dxx-yy               0.311     0.295     0.016
      V     2      Dxy                  0.335     0.303     0.032
      V     2      S                    0.111     0.106     0.004
      V     2      Px                   0.100     0.099     0.001
      V     2      Py                   0.094     0.089     0.005
      V     2      Pz                   0.075     0.072     0.003
      V     3      S                    0.996     0.996    -0.000
      V     3      Px                   0.995     0.995    -0.000
      V     3      Py                   0.995     0.995     0.000
      V     3      Pz                   0.995     0.995    -0.000
      V     3      Dzz                  0.296     0.265     0.031
      V     3      Dzy                  0.355     0.324     0.031
      V     3      Dzx                  0.327     0.317     0.010
      V     3      Dxx-yy               0.332     0.321     0.010
      V     3      Dxy                  0.312     0.280     0.032
      V     3      S                    0.124     0.124    -0.001
      V     3      Px                   0.090     0.092    -0.002
      V     3      Py                   0.071     0.074    -0.002
      V     3      Pz                   0.080     0.082    -0.002
      V     4      S                    0.996     0.996    -0.000
      V     4      Px                   0.996     0.996    -0.000
      V     4      Py                   0.995     0.995    -0.000
      V     4      Pz                   0.995     0.995    -0.000
      V     4      Dzz                  0.296     0.265     0.031
      V     4      Dzy                  0.333     0.312     0.021
      V     4      Dzx                  0.348     0.328     0.020
      V     4      Dxx-yy               0.307     0.281     0.026
      V     4      Dxy                  0.337     0.320     0.016
      V     4      S                    0.124     0.124    -0.001
      V     4      Px                   0.073     0.076    -0.003
      V     4      Py                   0.088     0.090    -0.002
      V     4      Pz                   0.080     0.082    -0.002
      V     5      S                    0.996     0.996    -0.000
      V     5      Px                   0.995     0.996    -0.000
      V     5      Py                   0.995     0.995    -0.000
      V     5      Pz                   0.995     0.995    -0.000
      V     5      Dzz                  0.353     0.318     0.035
      V     5      Dzy                  0.321     0.298     0.023
      V     5      Dzx                  0.318     0.309     0.009
      V     5      Dxx-yy               0.332     0.308     0.025
      V     5      Dxy                  0.346     0.290     0.056
      V     5      S                    0.106     0.103     0.003
      V     5      Px                   0.086     0.085     0.001
      V     5      Py                   0.077     0.077    -0.000
      V     5      Pz                   0.087     0.083     0.004
      V     6      S                    0.996     0.996    -0.000
      V     6      Px                   0.995     0.995    -0.000
      V     6      Py                   0.995     0.995    -0.000
      V     6      Pz                   0.995     0.995    -0.000
      V     6      Dzz                  0.353     0.318     0.035
      V     6      Dzy                  0.328     0.326     0.002
      V     6      Dzx                  0.311     0.281     0.030
      V     6      Dxx-yy               0.345     0.305     0.040
      V     6      Dxy                  0.333     0.292     0.041
      V     6      S                    0.106     0.103     0.003
      V     6      Px                   0.076     0.077    -0.001
      V     6      Py                   0.087     0.085     0.002
      V     6      Pz                   0.087     0.083     0.004
      V     7      S                    0.996     0.996    -0.000
      V     7      Px                   0.995     0.995    -0.000
      V     7      Py                   0.994     0.994    -0.000
      V     7      Pz                   0.996     0.996    -0.000
      V     7      Dzz                  0.330     0.285     0.044
      V     7      Dzy                  0.329     0.297     0.032
      V     7      Dzx                  0.324     0.307     0.017
      V     7      Dxx-yy               0.325     0.297     0.028
      V     7      Dxy                  0.336     0.318     0.018
      V     7      S                    0.116     0.115     0.001
      V     7      Px                   0.067     0.070    -0.003
      V     7      Py                   0.092     0.090     0.002
      V     7      Pz                   0.082     0.081     0.002
      V     8      S                    0.996     0.996    -0.000
      V     8      Px                   0.995     0.995    -0.000
      V     8      Py                   0.995     0.995    -0.000
      V     8      Pz                   0.996     0.996    -0.000
      V     8      Dzz                  0.329     0.285     0.044
      V     8      Dzy                  0.338     0.301     0.037
      V     8      Dzx                  0.314     0.303     0.011
      V     8      Dxx-yy               0.327     0.325     0.003
      V     8      Dxy                  0.333     0.290     0.043
      V     8      S                    0.116     0.115     0.001
      V     8      Px                   0.089     0.089    -0.000
      V     8      Py                   0.070     0.071    -0.001
[...]
             Li 6  -- O 28                   0.16         0.00          2.01764
              O 10 -- Fe 2                   0.22        -0.02          2.01873
              O 9  -- Fe 1                   0.22        -0.02          2.01873
             Li 8  -- O 6                    0.19         0.00          2.02881
             Li 7  -- O 5                    0.19         0.00          2.02881
              O 1  -- Fe 3                   0.31        -0.04          2.03080
              O 2  -- Fe 4                   0.31        -0.04          2.03080
              O 40 -- Fe 2                   0.25        -0.02          2.03082
              O 39 -- Fe 1                   0.25        -0.02          2.03082
              O 18 -- Fe 2                   0.15        -0.03          2.04912
              O 17 -- Fe 1                   0.15        -0.03          2.04912
             Li 6  -- O 30                   0.16         0.00          2.05115
             Li 5  -- O 29                   0.16         0.00          2.05116
             Li 9  -- O 9                    0.08         0.00          2.05898
             Li 10 -- O 10                   0.08         0.00          2.05898
             Li 8  -- O 41                   0.24         0.00          2.06004
             Li 7  -- O 42                   0.24         0.00          2.06004
             Li 6  -- O 2                    0.13         0.00          2.06294
             Li 5  -- O 1                    0.13         0.00          2.06294
              O 18 -- V 4                    0.29        -0.00          2.06315
              O 17 -- V 3                    0.29        -0.00          2.06315
             Li 3  -- O 3                    0.14         0.00          2.06853
             Li 4  -- O 4                    0.14         0.00          2.06853
             Li 4  -- O 8                    0.14         0.00          2.06867
             Li 3  -- O 7                    0.14         0.00          2.06867
             Li 4  -- O 39                   0.12         0.00          2.07420
             Li 3  -- O 40                   0.12         0.00          2.07420
              O 7  -- Fe 4                   0.30        -0.04          2.07914
              O 8  -- Fe 3                   0.30        -0.04          2.07914
              O 4  -- Fe 5                   0.24        -0.02          2.08835
              O 3  -- Fe 6                   0.24        -0.02          2.08835
             Li 10 -- O 16                   0.20         0.00          2.09183
             Li 9  -- O 15                   0.20         0.00          2.09183
              O 16 -- Fe 2                   0.17        -0.03          2.09193
              O 15 -- Fe 1                   0.17        -0.03          2.09193
              O 29 -- Fe 1                   0.24        -0.02          2.09362
              O 30 -- Fe 2                   0.24        -0.02          2.09362
              O 41 -- Fe 3                   0.21        -0.04          2.09838
              O 42 -- Fe 4                   0.21        -0.04          2.09838
             Li 7  -- O 9                    0.13         0.00          2.10654
             Li 8  -- O 10                   0.13         0.00          2.10654
              O 5  -- Fe 6                   0.24        -0.01          2.13968
              O 6  -- Fe 5                   0.24        -0.01          2.13968
             Li 2  -- O 38                   0.14         0.00          2.14575
             Li 1  -- O 37                   0.14         0.00          2.14575
             Li 3  -- O 36                   0.09         0.00          2.15200
             Li 4  -- O 35                   0.09         0.00          2.15200
              O 37 -- Fe 5                   0.18        -0.02          2.18445
              O 38 -- Fe 6                   0.18        -0.02          2.18445
              O 22 -- Fe 6                   0.24        -0.01          2.18785
              O 21 -- Fe 5                   0.24        -0.01          2.18785
             Li 5  -- O 17                   0.08         0.00          2.19978
             Li 6  -- O 18                   0.08         0.00          2.19978
             Li 2  -- O 19                   0.16         0.00          2.21766
             Li 1  -- O 20                   0.16         0.00          2.21766
              O 16 -- Fe 5                   0.18        -0.02          2.22241
              O 15 -- Fe 6                   0.18        -0.02          2.22241
              O 35 -- V 7                    0.17        -0.00          2.22264
              O 36 -- V 8                    0.17        -0.00          2.22264
              O 26 -- Fe 5                   0.13        -0.02          2.22931
              O 25 -- Fe 6                   0.13        -0.02          2.22931
             Li 7  -- O 33                   0.03         0.00          2.23867
             Li 8  -- O 34                   0.03         0.00          2.23867
             Li 1  -- O 6                    0.04         0.00          2.24425
             Li 2  -- O 5                    0.04         0.00          2.24425
             Li 4  -- O 21                   0.02         0.00          2.36086
             Li 3  -- O 22                   0.02         0.00          2.36086
             Li 1  -- O 41                  -0.00        -0.00          2.40167
             Li 2  -- O 42                  -0.00        -0.00          2.40167
             Li 7  -- O 19                   0.06         0.00          2.42195
             Li 8  -- O 20                   0.06         0.00          2.42195
             Li 1  -- O 13                   0.01        -0.00          2.46954
             Li 2  -- O 14                   0.01        -0.00          2.46954
              O 17 -- O 35                  -0.06         0.00          2.48895
              O 18 -- O 36                  -0.06         0.00          2.48895
              O 16 -- O 18                  -0.06        -0.00          2.56752
              O 15 -- O 17                  -0.06        -0.00          2.56752
             Li 6  -- O 20                  -0.03        -0.00          2.57823
             Li 5  -- O 19                  -0.03        -0.00          2.57823
              O 35 -- O 41                  -0.05        -0.00          2.60769
              O 36 -- O 42                  -0.05        -0.00          2.60769
             Li 1  -- Li 8                  -0.17        -0.00          2.60927
             Li 2  -- Li 7                  -0.17        -0.00          2.60927
              O 15 -- O 25                  -0.04        -0.00          2.64374
              O 16 -- O 26                  -0.04        -0.00          2.64374
             Li 10 -- O 8                   -0.07        -0.00          2.67911
             Li 9  -- O 7                   -0.07        -0.00          2.67911
              O 17 -- O 29                  -0.04        -0.00          2.68174
              O 18 -- O 30                  -0.04        -0.00          2.68174
              O 14 -- O 42                  -0.02        -0.00          2.69957
              O 13 -- O 41                  -0.02        -0.00          2.69957
              O 30 -- O 34                  -0.01        -0.00          2.71031
              O 29 -- O 33                  -0.01        -0.00          2.71031
              O 7  -- O 36                  -0.04        -0.00          2.71503
              O 8  -- O 35                  -0.04        -0.00          2.71503
              O 8  -- O 10                  -0.02        -0.00          2.71830
              O 7  -- O 9                   -0.02        -0.00          2.71830
              O 20 -- O 26                  -0.01         0.00          2.73570
              O 19 -- O 25                  -0.01         0.00          2.73570
              O 13 -- O 21                  -0.01         0.00          2.74278
              O 14 -- O 22                  -0.01         0.00          2.74278
             Li 10 -- Fe 5                  -0.10        -0.02          2.76055
             Li 9  -- Fe 6                  -0.10        -0.02          2.76055
              O 26 -- O 36                  -0.02        -0.00          2.77263
              O 25 -- O 35                  -0.02        -0.00          2.77263
              O 22 -- O 36                  -0.03         0.00          2.77552
              O 21 -- O 35                  -0.03         0.00          2.77552
              O 10 -- O 40                  -0.03        -0.00          2.77575
              O 9  -- O 39                  -0.03        -0.00          2.77575
              O 9  -- O 33                  -0.03        -0.00          2.77973
              O 10 -- O 34                  -0.03        -0.00          2.77973
              O 13 -- O 17                  -0.01        -0.00          2.78991
              O 14 -- O 18                  -0.01        -0.00          2.78991
              O 1  -- O 34                  -0.03        -0.00          2.80757
              O 2  -- O 33                  -0.03        -0.00          2.80757
              O 17 -- O 19                  -0.02         0.00          2.80841
              O 18 -- O 20                  -0.02         0.00          2.80841
              O 29 -- O 39                  -0.03        -0.00          2.81136
              O 30 -- O 40                  -0.03        -0.00          2.81136
              O 4  -- O 34                  -0.00        -0.00          2.81226
              O 3  -- O 33                  -0.00        -0.00          2.81226
              O 16 -- O 30                  -0.03        -0.00          2.81756
              O 15 -- O 29                  -0.03        -0.00          2.81756
             Li 9  -- V 11                  -0.25        -0.01          2.82239
             Li 10 -- V 12                  -0.25        -0.01          2.82239
              O 10 -- O 28                   0.00        -0.00          2.82418
              O 9  -- O 27                   0.00        -0.00          2.82418
              O 1  -- O 23                  -0.01        -0.00          2.82787
              O 2  -- O 24                  -0.01        -0.00          2.82787
              O 12 -- O 36                  -0.03        -0.00          2.83223
              O 11 -- O 35                  -0.03        -0.00          2.83223
              O 17 -- O 31                  -0.03        -0.00          2.83452
              O 18 -- O 32                  -0.03        -0.00          2.83452
              O 12 -- O 40                   0.00         0.00          2.83461
              O 11 -- O 39                   0.00         0.00          2.83461
              O 24 -- O 40                  -0.01         0.00          2.83500
              O 23 -- O 39                  -0.01         0.00          2.83500
              O 1  -- O 31                   0.00        -0.00          2.83792
              O 2  -- O 32                   0.00        -0.00          2.83792
              O 33 -- O 42                  -0.03        -0.00          2.83908
              O 34 -- O 41                  -0.03        -0.00          2.83908
             Li 10 -- Fe 2                  -0.10        -0.02          2.84517
             Li 9  -- Fe 1                  -0.10        -0.02          2.84517
              O 6  -- O 12                   0.00         0.00          2.85177
              O 5  -- O 11                   0.00         0.00          2.85177
              O 7  -- O 27                   0.00         0.00          2.85378
              O 8  -- O 28                   0.00         0.00          2.85378
              O 24 -- O 32                  -0.00        -0.00          2.85392
              O 23 -- O 31                  -0.00        -0.00          2.85392
              O 2  -- O 7                   -0.03        -0.00          2.85595
              O 1  -- O 8                   -0.03        -0.00          2.85595
              O 8  -- O 41                  -0.03        -0.00          2.85634
              O 7  -- O 42                  -0.03        -0.00          2.85634
              O 24 -- O 38                  -0.00        -0.00          2.85718
              O 23 -- O 37                  -0.00        -0.00          2.85718
              O 5  -- O 38                  -0.03        -0.00          2.85766
              O 6  -- O 37                  -0.03        -0.00          2.85766
              O 11 -- O 23                  -0.00         0.00          2.85907
              O 12 -- O 24                  -0.00         0.00          2.85907
              O 14 -- O 33                  -0.00         0.00          2.85932
              O 13 -- O 34                  -0.00         0.00          2.85932
              O 5  -- O 23                  -0.00         0.00          2.85970
              O 6  -- O 24                  -0.00         0.00          2.85970
              O 1  -- O 11                  -0.02        -0.00          2.86032
              O 2  -- O 12                  -0.02        -0.00          2.86032
              O 19 -- O 35                   0.00        -0.00          2.86593
              O 20 -- O 36                   0.00        -0.00          2.86593
              O 32 -- O 40                  -0.02        -0.00          2.87374
              O 31 -- O 39                  -0.02        -0.00          2.87374
              O 31 -- O 37                   0.00         0.00          2.87704
              O 32 -- O 38                   0.00         0.00          2.87704
              O 3  -- O 29                   0.00        -0.00          2.87880
              O 4  -- O 30                   0.00        -0.00          2.87880
              O 2  -- O 38                  -0.00        -0.00          2.87947
              O 1  -- O 37                  -0.00        -0.00          2.87947
              O 22 -- O 42                   0.01        -0.00          2.88653
              O 21 -- O 41                   0.01        -0.00          2.88653
              O 5  -- O 39                   0.00        -0.00          2.88815
              O 6  -- O 40                   0.00        -0.00          2.88815
              O 26 -- O 28                  -0.00         0.00          2.88898
              O 25 -- O 27                  -0.00         0.00          2.88898
              O 9  -- O 25                  -0.00         0.00          2.89308
              O 10 -- O 26                  -0.00         0.00          2.89308
              O 4  -- O 13                  -0.00         0.00          2.89401
              O 3  -- O 14                  -0.00         0.00          2.89401
              O 9  -- O 15                  -0.02        -0.00          2.89968
              O 10 -- O 16                  -0.02        -0.00          2.89968
              O 4  -- O 26                  -0.03        -0.00          2.90447
              O 3  -- O 25                  -0.03        -0.00          2.90447
              O 4  -- O 21                  -0.02        -0.00          2.90547
              O 3  -- O 22                  -0.02        -0.00          2.90547
              O 27 -- O 29                  -0.02         0.00          2.90989
              O 28 -- O 30                  -0.02         0.00          2.90989
             Li 4  -- O 23                  -0.03         0.00          2.91378
             Li 3  -- O 24                  -0.03         0.00          2.91378
              O 8  -- O 34                  -0.02        -0.00          2.92308
              O 7  -- O 33                  -0.02        -0.00          2.92308
              O 5  -- O 19                  -0.02         0.00          2.93664
              O 6  -- O 20                  -0.02         0.00          2.93664
             Li 10 -- V 2                   -0.25        -0.01          2.93830
             Li 9  -- V 1                   -0.25        -0.01          2.93830
              O 18 -- O 22                   0.00         0.00          2.94111
              O 17 -- O 21                   0.00         0.00          2.94111
              O 22 -- O 38                  -0.02        -0.00          2.94204
              O 21 -- O 37                  -0.02        -0.00          2.94204
              O 21 -- O 26                  -0.02        -0.00          2.94329
              O 22 -- O 25                  -0.02        -0.00          2.94329
             Li 9  -- O 22                  -0.03        -0.00          2.94731
             Li 10 -- O 21                  -0.03        -0.00          2.94731
              O 28 -- V 2                   -0.03        -0.00          2.95538
              O 27 -- V 1                   -0.03        -0.00          2.95538
              O 4  -- V 12                  -0.03        -0.00          2.95737
              O 3  -- V 11                  -0.03        -0.00          2.95737
             Li 8  -- V 12                  -0.23        -0.01          2.96110
             Li 7  -- V 11                  -0.23        -0.01          2.96110
             Li 8  -- O 30                  -0.07        -0.00          2.96304
             Li 7  -- O 29                  -0.07        -0.00          2.96304
              O 5  -- O 29                  -0.02         0.00          2.96453
              O 6  -- O 30                  -0.02         0.00          2.96453
              O 7  -- O 38                  -0.02         0.00          2.96757
              O 8  -- O 37                  -0.02         0.00          2.96757
              O 3  -- O 7                   -0.02        -0.00          2.96893
              O 4  -- O 8                   -0.02        -0.00          2.96893
              O 12 -- O 33                  -0.02        -0.00          2.97170
              O 11 -- O 34                  -0.02        -0.00          2.97170
              O 14 -- O 29                   0.00         0.00          2.97214
              O 13 -- O 30                   0.00         0.00          2.97214
              O 15 -- O 19                   0.01         0.00          2.98385
              O 16 -- O 20                   0.01         0.00          2.98385
              O 10 -- O 32                  -0.02        -0.00          2.98503
              O 9  -- O 31                  -0.02        -0.00          2.98503
             Li 6  -- O 24                  -0.03        -0.00          2.98955
             Li 5  -- O 23                  -0.03        -0.00          2.98955
              O 13 -- O 28                  -0.02        -0.00          2.99182
              O 14 -- O 27                  -0.02        -0.00          2.99182
              O 7  -- O 25                  -0.00         0.00          2.99193
              O 8  -- O 26                  -0.00         0.00          2.99193
              O 11 -- O 25                  -0.01         0.00          2.99199
              O 12 -- O 26                  -0.01         0.00          2.99199
             Li 8  -- Fe 3                  -0.14        -0.02          2.99441
             Li 7  -- Fe 4                  -0.14        -0.02          2.99441
              O 21 -- O 23                  -0.01         0.00          2.99894
              O 22 -- O 24                  -0.01         0.00          2.99894
================================================================================


Writing analysis data to ml_dos.castep_bin

Writing model to ml_dos.check
 
 A BibTeX formatted list of references used in this run has been written to 
 ml_dos.bib
 
Initialisation time =     14.90 s
Calculation time    =  29511.07 s
Finalisation time   =     17.58 s
Total time          =  29543.54 s
Peak Memory Use     = 6008684 kB
 
Overall parallel efficiency rating: Terrible (32%)
 
Data was distributed by:-
G-vector (40-way); efficiency rating: Terrible (32%)
