 +-------------------------------------------------+
 |                                                 |
 |      CCC   AA    SSS  TTTTT  EEEEE  PPPP        |
 |     C     A  A  S       T    E      P   P       |
 |     C     AAAA   SS     T    EEE    PPPP        |
 |     C     A  A     S    T    E      P           |
 |      CCC  A  A  SSS     T    EEEEE  P           |
 |                                                 |
 +-------------------------------------------------+
 |                                                 |
 | Welcome to Academic Release CASTEP version 25.12|
 | Ab Initio Total Energy Program                  |
 |                                                 |
 | Authors:                                        |
 | M. Segall, M. Probert, C. Pickard, P. Hasnip,   |
 | S. Clark, K. Refson, J. R. Yates,               |
 | A. Bartok-Partay, M. Payne                      |
 |                                                 |
 | Contributors:                                   |
 | P. Lindan, P. Haynes, J. White, V. Milman,      |
 | N. Govind, M. Gibson, P. Tulip, V. Cocula,      |
 | B. Montanari, D. Quigley, M. Glover,            |
 | L. Bernasconi, A. Perlov, M. Plummer,           |
 | E. McNellis, J. Meyer, J. Gale, D. Jochym       |
 | J. Aarons, B. Walker, R. Gillen, D. Jones       |
 | T. Green, I. J. Bush, C. J. Armstrong,          |
 | E. J. Higgins, E. L. Brown, M. S. McFly,        |
 | J. Wilkins, B-C. Shih, P. J. P. Byrne,          |
 | R. J. Maurer, J. C. Womack, J. Dziedzic,        |
 | L. LeBlanc, T. K. Stenczel, J. Kermode,         |
 | S. Sturniolo, B. Shi, B. Durham, M. Evans,      |
 | M. J. Smith, A. Tamerus, Z. Hawkhead,           |
 | V. Ravindran, T. Hollins, S. A. Joyce,          |
 | R. T. Strong, A. M. Reilly, S. J. Donaldson,    |
 | J. C. A. Prentice                               |
 |                                                 |
 | Copyright (c) 2000 - 2024                       |
 |                                                 |
 |     Distributed under license from Cambridge    |
 |     Enterprise for academic use only.           |
 |                                                 |
 | Please cite                                     |
 |                                                 |
 |     "First principles methods using CASTEP"     |
 |                                                 |
 |         Zeitschrift fuer Kristallographie       |
 |           220(5-6) pp. 567-570 (2005)           |
 |                                                 |
 | S. J. Clark, M. D. Segall, C. J. Pickard,       |
 | P. J. Hasnip, M. J. Probert, K. Refson,         |
 | M. C. Payne                                     |
 |                                                 |
 |       in all publications arising from          |
 |              your use of CASTEP                 |
 |                                                 |
 +-------------------------------------------------+
 |                                                 |
 |              http://www.castep.org              |
 |                                                 |
 +-------------------------------------------------+



 Compiled for linux_x86_64_gfortran10 on Sun, 13 Jul 2025 14:49:40 -0400
 from code version git version unavailable
 Compiler: GNU Fortran 13.3.0; Optimisation: fast
 Comms   : Open MPI v5.0.3
 MATHLIBS: flexiblas (IMKL) (LAPACK version 3.12.0)
 FFT Lib : fftw3 version fftw-3.3.10-sse2-avx-avx2-avx2_128
 Fundamental constants values: CODATA 2018

 Run started: Thu, 11 Dec 2025 00:38:05 -0500

 Atomic calculation performed for Li: 1s2 2s1

 Converged in 47 iterations to an ae energy of -202.784 eV

   ============================================================                
   | Pseudopotential Report - Date of generation 11-12-2025   |                
   ------------------------------------------------------------                
   | Element: Li Ionic charge:  3.00 Level of theory: PBE     |                
   | Atomic Solver: Koelling-Harmon                           |                
   |                                                          |                
   |               Reference Electronic Structure             |                
   |         Orbital         Occupation         Energy        |                
   |            1s              2.000           -1.906        |                
   |            2s              1.000           -0.106        |                
   |                                                          |                
   |                 Pseudopotential Definition               |                
   |        Beta     l      e      Rc     scheme   norm       |                
   |          1      0   -1.906   1.001     qc      0         |                
   |          2      0   -0.106   1.001     qc      0         |                
   |          3      0    0.250   1.001     qc      0         |                
   |         loc     1    0.000   1.001     pn      0         |                
   |                                                          |                
   | Augmentation charge Rinner = 0.699                       |                
   | No partial core correction                               |                
   ------------------------------------------------------------                
   | "1|1.0|14|16|18|10U:20(qc=7)"                            |                
   ------------------------------------------------------------                
   |      Author: Chris J. Pickard, Cambridge University      |                
   ============================================================                

 Atomic calculation performed for O: 1s2 2s2 2p4

 Converged in 61 iterations to an ae energy of -2040.902 eV

   ============================================================                
   | Pseudopotential Report - Date of generation 11-12-2025   |                
   ------------------------------------------------------------                
   | Element: O Ionic charge:  6.00 Level of theory: PBE      |                
   | Atomic Solver: Koelling-Harmon                           |                
   |                                                          |                
   |               Reference Electronic Structure             |                
   |         Orbital         Occupation         Energy        |                
   |            2s              2.000           -0.881        |                
   |            2p              4.000           -0.332        |                
   |                                                          |                
   |                 Pseudopotential Definition               |                
   |        Beta     l      e      Rc     scheme   norm       |                
   |          1      0   -0.881   1.100     qc      0         |                
   |          2      0    0.250   1.100     qc      0         |                
   |          3      1   -0.332   1.100     qc      0         |                
   |          4      1    0.250   1.100     qc      0         |                
   |         loc     2    0.000   1.100     pn      0         |                
   |                                                          |                
   | Augmentation charge Rinner = 0.769                       |                
   | Partial core correction Rc = 0.769                       |                
   ------------------------------------------------------------                
   | "2|1.1|17|20|23|20:21(qc=8)"                             |                
   ------------------------------------------------------------                
   |      Author: Chris J. Pickard, Cambridge University      |                
   ============================================================                

 Atomic calculation performed for P: 1s2 2s2 2p6 3s2 3p3

 Converged in 56 iterations to an ae energy of -9303.626 eV

   ============================================================                
   | Pseudopotential Report - Date of generation 11-12-2025   |                
   ------------------------------------------------------------                
   | Element: P Ionic charge:  5.00 Level of theory: PBE      |                
   | Atomic Solver: Koelling-Harmon                           |                
   |                                                          |                
   |               Reference Electronic Structure             |                
   |         Orbital         Occupation         Energy        |                
   |            3s              2.000           -0.513        |                
   |            3p              3.000           -0.202        |                
   |                                                          |                
   |                 Pseudopotential Definition               |                
   |        Beta     l      e      Rc     scheme   norm       |                
   |          1      0   -0.513   1.807     qc      0         |                
   |          2      0    0.250   1.807     qc      0         |                
   |          3      1   -0.202   1.807     qc      0         |                
   |          4      1    0.250   1.807     qc      0         |                
   |          5      2    0.000   1.807     qc      0         |                
   |          6      2    0.250   1.807     qc      0         |                
   |         loc     3    0.000   1.807     pn      0         |                
   |                                                          |                
   | Augmentation charge Rinner = 1.263                       |                
   | Partial core correction Rc = 1.263                       |                
   ------------------------------------------------------------                
   | "3|1.8|4|4|5|30:31:32"                                   |                
   ------------------------------------------------------------                
   |      Author: Chris J. Pickard, Cambridge University      |                
   ============================================================                

 Atomic calculation performed for Zr: 1s2 2s2 2p6 3s2 3p6 3d10 4s2 4p6 4d2 5s2

 Converged in 73 iterations to an ae energy of -97920.943 eV

 Warning: otfg_descreen_psp: negative charge density encountered
   ============================================================                
   | Pseudopotential Report - Date of generation 11-12-2025   |                
   ------------------------------------------------------------                
   | Element: Zr Ionic charge: 12.00 Level of theory: PBE     |                
   | Atomic Solver: Koelling-Harmon                           |                
   |                                                          |                
   |               Reference Electronic Structure             |                
   |         Orbital         Occupation         Energy        |                
   |            4s              2.000           -2.003        |                
   |            4p              6.000           -1.193        |                
   |            5s              2.000           -0.163        |                
   |            4d              2.000           -0.132        |                
   |                                                          |                
   |                 Pseudopotential Definition               |                
   |        Beta     l      e      Rc     scheme   norm       |                
   |          1      0   -2.003   2.105     qc      0         |                
   |          2      0   -0.163   2.105     qc      0         |                
   |          3      0    0.250   2.105     qc      0         |                
   |          4      1   -1.193   2.105     qc      0         |                
   |          5      1    0.250   2.105     qc      0         |                
   |          6      2   -0.132   2.105     qc      0         |                
   |          7      2    0.250   2.105     qc      0         |                
   |         loc     3    0.000   2.105     pn      0         |                
   |                                                          |                
   | Augmentation charge Rinner = 1.471                       |                
   | Partial core correction Rc = 1.471                       |                
   ------------------------------------------------------------                
   | "3|2.1|7|8|9|40U:50:41:42"                               |                
   ------------------------------------------------------------                
   |      Author: Chris J. Pickard, Cambridge University      |                
   ============================================================                

 Pseudo atomic calculation performed for Li 1s2 2s1

 Converged in 18 iterations to a total energy of -200.5098 eV

 Pseudo atomic calculation performed for O 2s2 2p4

 Converged in 24 iterations to a total energy of -432.3399 eV

 Pseudo atomic calculation performed for P 3s2 3p3

 Converged in 18 iterations to a total energy of -214.2237 eV

 Pseudo atomic calculation performed for Zr 4s2 4p6 4d2 5s2

 Converged in 25 iterations to a total energy of -1285.8617 eV
 Calculation parallelised over 16 processes.
 Data is distributed by G-vector(2-way) and k-point(8-way)

 ************************************ Title ************************************
 

 ***************************** General Parameters ******************************
  
 output verbosity                               : normal  (1)
 write checkpoint data to                       : ml_dos.check
 type of calculation                            : Electronic Spectroscopy
 stress calculation                             : off
 density difference calculation                 : off
 electron localisation func (ELF) calculation   : off
 Hirshfeld analysis                             : off
 polarisation (Berry phase) analysis            : off
 molecular orbital projected DOS                : off
 deltaSCF calculation                           : off
 unlimited duration calculation
 timing information                             : on
 memory usage estimate                          : on
 write extra output files                       : on
 write final potential to formatted file        : off
 write final density to formatted file          : off
 write BibTeX reference list                    : on
 write OTFG pseudopotential files               : on
 write electrostatic potential file             : on
 write bands file                               : on
 checkpoint writing                             : both castep_bin and check files
  
 output         length unit                     : A
 output           mass unit                     : amu
 output           time unit                     : ps
 output         charge unit                     : e
 output           spin unit                     : hbar/2
 output         energy unit                     : eV
 output          force unit                     : eV/A
 output       velocity unit                     : A/ps
 output       pressure unit                     : GPa
 output     inv_length unit                     : 1/A
 output      frequency unit                     : cm-1
 output force constant unit                     : eV/A**2
 output         volume unit                     : A**3
 output   IR intensity unit                     : (D/A)**2/amu
 output         dipole unit                     : D
 output         efield unit                     : eV/A/e
 output        entropy unit                     : J/mol/K
 output    efield chi2 unit                     : pm/V
  
 wavefunctions paging                           : none
 random number generator seed                   :    3805418
 data distribution                              : optimal for this architecture
 optimization strategy                          : balance speed and memory

 *********************** Exchange-Correlation Parameters ***********************
  
 using functional                               : Perdew Burke Ernzerhof
 relativistic treatment                         : Koelling-Harmon
 DFT+D: Semi-empirical dispersion correction    : off

 ************************* Pseudopotential Parameters **************************
  
 pseudopotential representation                 : reciprocal space
 <beta|phi> representation                      : reciprocal space
 spin-orbit coupling                            : off

 **************************** Basis Set Parameters *****************************
  
 plane wave basis set cut-off                   :   900.0000   eV
 size of standard grid                          :     2.0000
 size of   fine   gmax                          :    30.7390   1/A
 finite basis set correction                    : none

 **************************** Electronic Parameters ****************************
  
 number of  electrons                           :  456.0    
 net charge of system                           :  0.000    
 treating system as non-spin-polarized
 number of bands                                :        274

 ********************* Electronic Minimization Parameters **********************
  
 Method: Treating system as metallic with density mixing treatment of electrons,
         and number of  SD  steps               :          1
         and number of  CG  steps               :          4
  
 total energy / atom convergence tol.           : 0.1000E-05   eV
 eigen-energy convergence tolerance             : 0.3158E-06   eV
 max force / atom convergence tol.              : ignored
 convergence tolerance window                   :          3   cycles
 max. number of SCF cycles                      :        100
 number of fixed-spin iterations                :         10
 smearing scheme                                : Gaussian
 smearing width                                 : 0.2000       eV
 Fermi energy convergence tolerance             : 0.2721E-13   eV
 periodic dipole correction                     : NONE

 ************************** Density Mixing Parameters **************************
  
 density-mixing scheme                          : Pulay
 max. length of mixing history                  :         20
 charge density mixing amplitude                : 0.2000    
 cut-off energy for mixing                      :  900.0       eV

 *********************** Population Analysis Parameters ************************
  
 Population analysis with cutoff                :  3.000       A
 Population analysis output                     : summary and pdos components
 Partial DOS weights calculated

 ********************* Electronic Spectroscopy Parameters **********************
  
 electronic spectroscopy with theory level      : DFT       
 spectroscopy calculation                       : density of states
 max. number of iterations                      :         60
 max. steps per iteration                       :          5
 number of bands / k-point                      :        357
 band convergence tolerance                     : 0.1000E-05   eV
 write orbitals file                            : off

 *******************************************************************************
  

                           -------------------------------
                                      Unit Cell
                           -------------------------------
        Real Lattice(A)                      Reciprocal Lattice(1/A)
     8.8192130     0.0000000     0.0000000        0.712442857   0.000000000   0.012549902
     0.0000000     8.9538070     0.0000000        0.000000000   0.701733386   0.000000000
    -0.2180620     0.0000000    12.3791180        0.000000000   0.000000000   0.507563245

                       Lattice parameters(A)       Cell Angles
                    a =      8.819213          alpha =   90.000000
                    b =      8.953807          beta  =   91.009179
                    c =     12.381038          gamma =   90.000000

                       Current cell volume =           977.523627       A**3
                                   density =             1.940835   AMU/A**3
                                           =             3.222833     g/cm^3

                           -------------------------------
                                     Cell Contents
                           -------------------------------
                         Total number of ions in cell =   72
                      Total number of species in cell =    4
                        Max number of any one species =   48

            xxxxxxxxxxxxxxxxxxxxxxxxxxxxxxxxxxxxxxxxxxxxxxxxxxxxxxxxxxxx
            x  Element    Atom        Fractional coordinates of atoms  x
            x            Number           u          v          w      x
            x----------------------------------------------------------x
            x  Li           1         0.205468   0.722685   0.175548   x 
            x  Li           2         0.705467   0.777314   0.675548   x 
            x  Li           3         0.794532   0.277314   0.824452   x 
            x  Li           4         0.294532   0.222685   0.324452   x 
            x  O            1         0.851939   0.913565   0.030293   x 
            x  O            2         0.351939   0.586435   0.530293   x 
            x  O            3         0.148061   0.086435   0.969707   x 
            x  O            4         0.648061   0.413565   0.469707   x 
            x  O            5         0.817563   0.752283   0.818202   x 
            x  O            6         0.317563   0.747717   0.318202   x 
            x  O            7         0.182437   0.247717   0.181798   x 
            x  O            8         0.682437   0.252283   0.681798   x 
            x  O            9         0.551287   0.862565   0.942447   x 
            x  O           10         0.051287   0.637435   0.442447   x 
            x  O           11         0.448713   0.137435   0.057553   x 
            x  O           12         0.948713   0.362565   0.557553   x 
            x  O           13         0.925046   0.095208   0.842938   x 
            x  O           14         0.425046   0.404792   0.342938   x 
            x  O           15         0.074954   0.904792   0.157062   x 
            x  O           16         0.574954   0.595208   0.657062   x 
            x  O           17         0.668338   0.979797   0.725763   x 
            x  O           18         0.168338   0.520203   0.225763   x 
            x  O           19         0.331662   0.020203   0.274237   x 
            x  O           20         0.831662   0.479797   0.774237   x 
            x  O           21         0.653641   0.165028   0.920686   x 
            x  O           22         0.153642   0.334972   0.420686   x 
            x  O           23         0.346358   0.834972   0.079314   x 
            x  O           24         0.846358   0.665028   0.579314   x 
            x  O           25         0.825457   0.560555   0.965214   x 
            x  O           26         0.325457   0.939445   0.465214   x 
            x  O           27         0.174543   0.439445   0.034786   x 
            x  O           28         0.674543   0.060556   0.534786   x 
            x  O           29         0.877663   0.711886   0.169719   x 
            x  O           30         0.377663   0.788114   0.669719   x 
            x  O           31         0.122337   0.288114   0.830281   x 
            x  O           32         0.622337   0.211886   0.330281   x 
            x  O           33         0.573414   0.672172   0.090079   x 
            x  O           34         0.073414   0.827827   0.590079   x 
            x  O           35         0.426586   0.327827   0.909921   x 
            x  O           36         0.926586   0.172172   0.409921   x 
            x  O           37         0.942847   0.391005   0.144252   x 
            x  O           38         0.442847   0.108995   0.644252   x 
            x  O           39         0.057153   0.608995   0.855748   x 
            x  O           40         0.557153   0.891005   0.355748   x 
            x  O           41         0.680782   0.476413   0.275926   x 
            x  O           42         0.180782   0.023587   0.775926   x 
            x  O           43         0.319218   0.523587   0.724074   x 
            x  O           44         0.819218   0.976413   0.224074   x 
            x  O           45         0.617470   0.357696   0.061183   x 
            x  O           46         0.117470   0.142304   0.561183   x 
            x  O           47         0.382530   0.642304   0.938816   x 
            x  O           48         0.882530   0.857696   0.438817   x 
            x  P            1         0.885304   0.600961   0.855188   x 
            x  P            2         0.385304   0.899039   0.355188   x 
            x  P            3         0.114696   0.399039   0.144812   x 
            x  P            4         0.614696   0.100961   0.644812   x 
            x  P            5         0.903071   0.876551   0.146138   x 
            x  P            6         0.403071   0.623449   0.646138   x 
            x  P            7         0.096929   0.123449   0.853862   x 
            x  P            8         0.596929   0.376551   0.353862   x 
            x  P            9         0.465701   0.751244   0.012395   x 
            x  P           10         0.965701   0.748756   0.512394   x 
            x  P           11         0.534299   0.248756   0.987605   x 
            x  P           12         0.034299   0.251244   0.487605   x 
            x  Zr           1         0.745080   0.954335   0.888019   x 
            x  Zr           2         0.245080   0.545665   0.388019   x 
            x  Zr           3         0.254920   0.045665   0.111981   x 
            x  Zr           4         0.754920   0.454335   0.611981   x 
            x  Zr           5         0.751376   0.525046   0.122638   x 
            x  Zr           6         0.251376   0.974954   0.622638   x 
            x  Zr           7         0.248624   0.474954   0.877362   x 
            x  Zr           8         0.748624   0.025046   0.377362   x 
            xxxxxxxxxxxxxxxxxxxxxxxxxxxxxxxxxxxxxxxxxxxxxxxxxxxxxxxxxxxx


                         No user defined ionic velocities

                           -------------------------------
                                   Details of Species
                           -------------------------------

                               Mass of species in AMU
                                    Li    6.9410000
                                    O   15.9994000
                                    P   30.9737600
                                    Zr   91.2240000

                          Electric Quadrupole Moment (Barn)
                                    Li   -0.0401000 Isotope   7
                                    O   -0.0255800 Isotope  17
                                    P    1.0000000 No Isotope Defined
                                    Zr   -0.1760000 Isotope  91

                          Files used for pseudopotentials:
                                    Li 1|1.0|14|16|18|10U:20(qc=7)
                                    O 2|1.1|17|20|23|20:21(qc=8)
                                    P 3|1.8|4|4|5|30:31:32
                                    Zr 3|2.1|7|8|9|40U:50:41:42

                           -------------------------------
                              k-Points For BZ Sampling
                           -------------------------------
                       MP grid size for SCF calculation is  4  4  3
                            with an offset of   0.000  0.000  0.000
                       Number of kpoints used =            24

                           -------------------------------
                               Symmetry and Constraints
                           -------------------------------

                      Maximum deviation from symmetry =  0.00000         ANG

                      Number of symmetry operations   =           1
                      Number of ionic constraints     =           3
                      Point group of crystal =     1: C1, 1, 1
                      Space group of crystal =    14: P2_1/c, -P 2ybc

             Set iprint > 1 for details on symmetry rotations/translations

                         Centre of mass is constrained
             Set iprint > 2 for details of linear ionic constraints

                         Number of cell constraints= 0
                         Cell constraints are:  1 2 3 4 5 6

                         External pressure/stress (GPa)
                          0.00000   0.00000   0.00000
                                    0.00000   0.00000
                                              0.00000
 
+---------------- MEMORY AND SCRATCH DISK ESTIMATES PER PROCESS --------------+
|                                                     Memory          Disk    |
| Baseline code, static data and system overhead      813.0 MB         0.0 MB |
| BLAS internal memory storage                          0.0 MB         0.0 MB |
| Model and support data                             2764.5 MB         0.0 MB |
| Electronic energy minimisation requirements        1205.7 MB         0.0 MB |
| Force calculation requirements                       73.4 MB         0.0 MB |
|                                               ----------------------------- |
| Approx. total storage required per process         4783.3 MB         0.0 MB |
|                                                                             |
| Requirements will fluctuate during execution and may exceed these estimates |
+-----------------------------------------------------------------------------+
Calculating approximate eigenstates for fixed initial Hamiltonian
Cut-off for approx. calculation is   89.988 eV
Improving approx. states at cut-off of  450.000 eV
Resetting cut-off to  900.000 eV
Calculating total energy with cut-off of  900.000 eV.
------------------------------------------------------------------------ <-- SCF
SCF loop      Energy           Fermi           Energy gain       Timer   <-- SCF
                               energy          per atom          (sec)   <-- SCF
------------------------------------------------------------------------ <-- SCF
Initial  -3.39039465E+004  0.00000000E+000                       243.94  <-- SCF
      1  -3.50234456E+004  2.69639057E-001   1.55485987E+001     511.40  <-- SCF
      2  -3.50252135E+004  2.67982888E-001   2.45541967E-002     778.86  <-- SCF
      3  -3.49939093E+004  1.22984450E+000  -4.34780633E-001     927.49  <-- SCF
      4  -3.49803851E+004  2.35908798E+000  -1.87836350E-001    1205.64  <-- SCF
      5  -3.49808783E+004  2.33172300E+000   6.85025849E-003    1482.16  <-- SCF
      6  -3.49805745E+004  2.57128948E+000  -4.21965828E-003    1591.61  <-- SCF
      7  -3.49806722E+004  2.63988873E+000   1.35723268E-003    1741.78  <-- SCF
      8  -3.49806768E+004  2.60987973E+000   6.41382648E-005    1870.86  <-- SCF
      9  -3.49806937E+004  2.62982187E+000   2.35197837E-004    1982.24  <-- SCF
     10  -3.49806948E+004  2.62528975E+000   1.51796483E-005    2121.60  <-- SCF
     11  -3.49806953E+004  2.62457725E+000   7.02661996E-006    2241.81  <-- SCF
     12  -3.49806956E+004  2.63092094E+000   3.76492147E-006    2347.79  <-- SCF
     13  -3.49806956E+004  2.63257396E+000   5.46427775E-007    2432.52  <-- SCF
     14  -3.49806956E+004  2.63273633E+000  -2.27284288E-007    2514.57  <-- SCF
------------------------------------------------------------------------ <-- SCF
 
Final energy, E             =  -34980.69562334     eV
Final free energy (E-TS)    =  -34980.69562334     eV
(energies not corrected for finite basis set)
 
NB est. 0K energy (E-0.5TS)      =  -34980.69562334     eV
 

Writing analysis data to ml_dos.castep_bin

Writing model to ml_dos.check
 
+---------------- MEMORY AND SCRATCH DISK ESTIMATES PER PROCESS --------------+
|                                                     Memory          Disk    |
|                                               ----------------------------- |
| Approx. total storage required per process         5885.6 MB         0.0 MB |
|                                                                             |
| Requirements will fluctuate during execution and may exceed these estimates |
+-----------------------------------------------------------------------------+
 
  =====================================================================
  +                                                                   +
  +                 Calculation of Spectral Properties                +
  +                                                                   +
  + Calculation re-parallelised over 12 processes.                    +
  + There are 24 k-points distributed across 12 k-point groups.       +
  + Data distributed by G-vector(1-way), k-point(12-way), band(1-way) +
  + Data distributed by k-point(12-way)                               +
  +                                                                   +
  =====================================================================

 Pseudo atomic calculation performed for Li 1s2 2s1

 Converged in 18 iterations to a total energy of -200.5098 eV

 Pseudo atomic calculation performed for O 2s2 2p4

 Converged in 24 iterations to a total energy of -432.3399 eV

 Pseudo atomic calculation performed for P 3s2 3p3

 Converged in 18 iterations to a total energy of -214.2237 eV

 Pseudo atomic calculation performed for Zr 4s2 4p6 4d2 5s2

 Converged in 25 iterations to a total energy of -1285.8617 eV
  Starting k-point:        1 of        2 Time:      0.00 sec  |<-- SPEC

 Pseudo atomic calculation performed for Li 1s2 2s1

 Converged in 18 iterations to a total energy of -200.5098 eV

 Pseudo atomic calculation performed for O 2s2 2p4

 Converged in 24 iterations to a total energy of -432.3399 eV

 Pseudo atomic calculation performed for P 3s2 3p3

 Converged in 18 iterations to a total energy of -214.2237 eV

 Pseudo atomic calculation performed for Zr 4s2 4p6 4d2 5s2

 Converged in 25 iterations to a total energy of -1285.8617 eV
  Starting k-point:        2 of        2 Time:   1341.94 sec  |<-- SPEC

 Pseudo atomic calculation performed for Li 1s2 2s1

 Converged in 18 iterations to a total energy of -200.5098 eV

 Pseudo atomic calculation performed for O 2s2 2p4

 Converged in 24 iterations to a total energy of -432.3399 eV

 Pseudo atomic calculation performed for P 3s2 3p3

 Converged in 18 iterations to a total energy of -214.2237 eV

 Pseudo atomic calculation performed for Zr 4s2 4p6 4d2 5s2

 Converged in 25 iterations to a total energy of -1285.8617 eV
  Check-pointing spectral run                                 |<-- SPEC
  Total time to compute matrix elements           2704.53 sec |<-- SPEC
  
  + Calculation re-parallelised over 16 processes.                    +
  + Data distributed by G-vector(2-way), k-point(8-way)               +

 ************************** Forces **************************
 *                                                          *
 *               Cartesian components (eV/A)                *
 * -------------------------------------------------------- *
 *                         x            y            z      *
 *                                                          *
 * Li              1      0.03682      0.03503      0.01946 *
 * Li              2      0.03619     -0.03476      0.01542 *
 * Li              3     -0.03683     -0.03498     -0.01947 *
 * Li              4     -0.03617      0.03480     -0.01542 *
 * O               1     -0.22072      0.21947     -0.75597 *
 * O               2     -0.22074     -0.21941     -0.75617 *
 * O               3      0.22071     -0.21943      0.75602 *
 * O               4      0.22072      0.21945      0.75625 *
 * O               5     -0.22627      0.62622     -0.24193 *
 * O               6     -0.22628     -0.62634     -0.24171 *
 * O               7      0.22625     -0.62619      0.24193 *
 * O               8      0.22628      0.62638      0.24178 *
 * O               9      0.36705      0.49914     -0.48711 *
 * O              10      0.36720     -0.49920     -0.48738 *
 * O              11     -0.36707     -0.49908      0.48709 *
 * O              12     -0.36708      0.49902      0.48710 *
 * O              13     -0.66024     -0.09496     -0.09916 *
 * O              14     -0.66043      0.09510     -0.09899 *
 * O              15      0.66020      0.09497      0.09916 *
 * O              16      0.66033     -0.09508      0.09897 *
 * O              17      0.21026     -0.53289      0.41807 *
 * O              18      0.21014      0.53283      0.41810 *
 * O              19     -0.21022      0.53286     -0.41806 *
 * O              20     -0.21019     -0.53278     -0.41809 *
 * O              21      0.51759     -0.26734     -0.37362 *
 * O              22      0.51734      0.26706     -0.37344 *
 * O              23     -0.51737      0.26716      0.37352 *
 * O              24     -0.51729     -0.26703      0.37325 *
 * O              25     -0.28857     -0.24404      0.71763 *
 * O              26     -0.28875      0.24413      0.71779 *
 * O              27      0.28862      0.24399     -0.71758 *
 * O              28      0.28870     -0.24410     -0.71799 *
 * O              29     -0.13233     -0.85229      0.19172 *
 * O              30     -0.13241      0.85222      0.19167 *
 * O              31      0.13235      0.85223     -0.19173 *
 * O              32      0.13249     -0.85228     -0.19172 *
 * O              33      0.50129     -0.39638      0.59407 *
 * O              34      0.50157      0.39665      0.59405 *
 * O              35     -0.50148      0.39652     -0.59420 *
 * O              36     -0.50154     -0.39662     -0.59418 *
 * O              37     -0.83487     -0.09561      0.01760 *
 * O              38     -0.83483      0.09579      0.01751 *
 * O              39      0.83493      0.09553     -0.01760 *
 * O              40      0.83484     -0.09585     -0.01754 *
 * O              41      0.43340      0.52964     -0.48886 *
 * O              42      0.43321     -0.52955     -0.48847 *
 * O              43     -0.43339     -0.52967      0.48884 *
 * O              44     -0.43315      0.52952      0.48848 *
 * O              45      0.45339      0.53186      0.57896 *
 * O              46      0.45350     -0.53196      0.57898 *
 * O              47     -0.45327     -0.53165     -0.57874 *
 * O              48     -0.45363      0.53214     -0.57920 *
 * P               1     -0.05518      0.03602      0.00515 *
 * P               2     -0.05519     -0.03590      0.00404 *
 * P               3      0.05519     -0.03600     -0.00518 *
 * P               4      0.05517      0.03596     -0.00395 *
 * P               5      0.07275     -0.01047      0.02725 *
 * P               6      0.07268      0.01048      0.02735 *
 * P               7     -0.07271      0.01044     -0.02726 *
 * P               8     -0.07271     -0.01049     -0.02729 *
 * P               9      0.01701      0.06868      0.09048 *
 * P              10      0.01697     -0.06894      0.09124 *
 * P              11     -0.01719     -0.06884     -0.09056 *
 * P              12     -0.01703      0.06887     -0.09052 *
 * Zr              1     -0.06224     -0.03029      0.15780 *
 * Zr              2     -0.07148      0.01178      0.13102 *
 * Zr              3      0.06225      0.03025     -0.15776 *
 * Zr              4      0.07156     -0.01178     -0.13090 *
 * Zr              5     -0.01837      0.05033     -0.07906 *
 * Zr              6      0.01361     -0.02672     -0.01241 *
 * Zr              7      0.01832     -0.05040      0.07907 *
 * Zr              8     -0.01363      0.02675      0.01244 *
 *                                                          *
 ************************************************************

 Pseudo atomic calculation performed for Li 1s2 2s1

 Converged in 18 iterations to a total energy of -200.5098 eV

 Pseudo atomic calculation performed for O 2s2 2p4

 Converged in 24 iterations to a total energy of -432.3399 eV

 Pseudo atomic calculation performed for P 3s2 3p3

 Converged in 18 iterations to a total energy of -214.2237 eV

 Pseudo atomic calculation performed for Zr 4s2 4p6 4d2 5s2

 Converged in 25 iterations to a total energy of -1285.8617 eV
Charge spilling parameter for spin component 1 = 0.94%

            Orbital Populations       
     Ion    Atom   Orbital             Charge
  -------------------------------------------
     Li     1      S                    2.001
     Li     1      S                   -0.037
     Li     1      Px                   0.019
     Li     1      Py                   0.031
     Li     1      Pz                   0.035
     Li     2      S                    2.001
     Li     2      S                   -0.037
     Li     2      Px                   0.019
     Li     2      Py                   0.031
     Li     2      Pz                   0.035
     Li     3      S                    2.001
     Li     3      S                   -0.037
     Li     3      Px                   0.019
     Li     3      Py                   0.031
     Li     3      Pz                   0.035
     Li     4      S                    2.001
     Li     4      S                   -0.037
     Li     4      Px                   0.019
     Li     4      Py                   0.031
     Li     4      Pz                   0.035
      O     1      S                    1.824
      O     1      Px                   1.772
      O     1      Py                   1.780
      O     1      Pz                   1.571
      O     2      S                    1.824
      O     2      Px                   1.771
      O     2      Py                   1.780
      O     2      Pz                   1.571
      O     3      S                    1.824
      O     3      Px                   1.772
      O     3      Py                   1.780
      O     3      Pz                   1.571
      O     4      S                    1.824
      O     4      Px                   1.772
      O     4      Py                   1.780
      O     4      Pz                   1.571
      O     5      S                    1.840
      O     5      Px                   1.765
      O     5      Py                   1.590
      O     5      Pz                   1.777
      O     6      S                    1.840
      O     6      Px                   1.765
      O     6      Py                   1.590
      O     6      Pz                   1.777
      O     7      S                    1.840
      O     7      Px                   1.765
      O     7      Py                   1.590
      O     7      Pz                   1.777
      O     8      S                    1.840
      O     8      Px                   1.765
      O     8      Py                   1.590
      O     8      Pz                   1.777
      O     9      S                    1.828
      O     9      Px                   1.696
      O     9      Py                   1.693
      O     9      Pz                   1.721
      O    10      S                    1.828
      O    10      Px                   1.696
      O    10      Py                   1.693
      O    10      Pz                   1.721
      O    11      S                    1.828
      O    11      Px                   1.696
      O    11      Py                   1.693
      O    11      Pz                   1.721
      O    12      S                    1.828
      O    12      Px                   1.696
      O    12      Py                   1.693
      O    12      Pz                   1.721
      O    13      S                    1.836
      O    13      Px                   1.556
      O    13      Py                   1.783
      O    13      Pz                   1.812
      O    14      S                    1.836
      O    14      Px                   1.556
      O    14      Py                   1.783
      O    14      Pz                   1.812
      O    15      S                    1.836
      O    15      Px                   1.556
      O    15      Py                   1.783
      O    15      Pz                   1.812
      O    16      S                    1.836
      O    16      Px                   1.556
      O    16      Py                   1.783
      O    16      Pz                   1.812
      O    17      S                    1.834
      O    17      Px                   1.792
      O    17      Py                   1.686
      O    17      Pz                   1.669
      O    18      S                    1.834
      O    18      Px                   1.792
      O    18      Py                   1.686
      O    18      Pz                   1.669
      O    19      S                    1.834
      O    19      Px                   1.792
      O    19      Py                   1.686
      O    19      Pz                   1.669
      O    20      S                    1.834
      O    20      Px                   1.792
      O    20      Py                   1.686
      O    20      Pz                   1.669
      O    21      S                    1.836
      O    21      Px                   1.697
      O    21      Py                   1.705
      O    21      Pz                   1.739
      O    22      S                    1.836
      O    22      Px                   1.697
      O    22      Py                   1.705
      O    22      Pz                   1.739
      O    23      S                    1.836
      O    23      Px                   1.697
      O    23      Py                   1.705
      O    23      Pz                   1.739
      O    24      S                    1.836
      O    24      Px                   1.697
      O    24      Py                   1.705
      O    24      Pz                   1.739
      O    25      S                    1.821
      O    25      Px                   1.769
      O    25      Py                   1.788
      O    25      Pz                   1.593
      O    26      S                    1.821
      O    26      Px                   1.768
      O    26      Py                   1.789
      O    26      Pz                   1.593
      O    27      S                    1.821
      O    27      Px                   1.769
      O    27      Py                   1.789
      O    27      Pz                   1.593
      O    28      S                    1.821
      O    28      Px                   1.769
      O    28      Py                   1.789
      O    28      Pz                   1.593
      O    29      S                    1.837
      O    29      Px                   1.781
      O    29      Py                   1.555
      O    29      Pz                   1.789
      O    30      S                    1.837
      O    30      Px                   1.781
      O    30      Py                   1.555
      O    30      Pz                   1.789
      O    31      S                    1.837
      O    31      Px                   1.781
      O    31      Py                   1.555
      O    31      Pz                   1.789
      O    32      S                    1.837
      O    32      Px                   1.781
      O    32      Py                   1.555
      O    32      Pz                   1.789
      O    33      S                    1.832
      O    33      Px                   1.679
      O    33      Py                   1.734
      O    33      Pz                   1.717
      O    34      S                    1.832
      O    34      Px                   1.679
      O    34      Py                   1.734
      O    34      Pz                   1.717
      O    35      S                    1.832
      O    35      Px                   1.679
      O    35      Py                   1.734
      O    35      Pz                   1.717
      O    36      S                    1.832
      O    36      Px                   1.679
      O    36      Py                   1.734
      O    36      Pz                   1.717
      O    37      S                    1.841
      O    37      Px                   1.544
      O    37      Py                   1.773
      O    37      Pz                   1.795
      O    38      S                    1.841
      O    38      Px                   1.544
      O    38      Py                   1.773
      O    38      Pz                   1.795
      O    39      S                    1.841
      O    39      Px                   1.544
      O    39      Py                   1.773
      O    39      Pz                   1.795
      O    40      S                    1.841
      O    40      Px                   1.544
      O    40      Py                   1.773
      O    40      Pz                   1.795
      O    41      S                    1.835
      O    41      Px                   1.739
      O    41      Py                   1.728
      O    41      Pz                   1.655
      O    42      S                    1.835
      O    42      Px                   1.740
      O    42      Py                   1.728
      O    42      Pz                   1.655
      O    43      S                    1.835
      O    43      Px                   1.739
      O    43      Py                   1.728
      O    43      Pz                   1.655
      O    44      S                    1.835
      O    44      Px                   1.739
      O    44      Py                   1.728
      O    44      Pz                   1.656
      O    45      S                    1.826
      O    45      Px                   1.734
      O    45      Py                   1.680
      O    45      Pz                   1.720
      O    46      S                    1.826
      O    46      Px                   1.734
      O    46      Py                   1.680
      O    46      Pz                   1.720
      O    47      S                    1.826
      O    47      Px                   1.734
      O    47      Py                   1.680
      O    47      Pz                   1.720
      O    48      S                    1.826
      O    48      Px                   1.734
      O    48      Py                   1.680
      O    48      Pz                   1.720
      P     1      S                    0.883
      P     1      Px                   0.607
      P     1      Py                   0.636
      P     1      Pz                   0.606
      P     2      S                    0.883
      P     2      Px                   0.607
      P     2      Py                   0.636
      P     2      Pz                   0.606
      P     3      S                    0.883
      P     3      Px                   0.607
      P     3      Py                   0.636
      P     3      Pz                   0.606
      P     4      S                    0.883
      P     4      Px                   0.607
      P     4      Py                   0.636
      P     4      Pz                   0.606
      P     5      S                    0.869
      P     5      Px                   0.618
      P     5      Py                   0.601
      P     5      Pz                   0.610
      P     6      S                    0.869
      P     6      Px                   0.618
      P     6      Py                   0.601
      P     6      Pz                   0.610
      P     7      S                    0.869
      P     7      Px                   0.618
      P     7      Py                   0.601
      P     7      Pz                   0.610
      P     8      S                    0.869
      P     8      Px                   0.618
      P     8      Py                   0.601
      P     8      Pz                   0.610
      P     9      S                    0.866
      P     9      Px                   0.618
      P     9      Py                   0.611
      P     9      Pz                   0.595
      P    10      S                    0.866
      P    10      Px                   0.618
      P    10      Py                   0.611
      P    10      Pz                   0.595
      P    11      S                    0.866
      P    11      Px                   0.618
      P    11      Py                   0.611
      P    11      Pz                   0.595
      P    12      S                    0.866
      P    12      Px                   0.618
      P    12      Py                   0.611
      P    12      Pz                   0.595
     Zr     1      S                    1.994
     Zr     1      Px                   1.990
     Zr     1      Py                   1.989
     Zr     1      Pz                   1.989
     Zr     1      S                    0.243
     Zr     1      Dzz                  0.391
     Zr     1      Dzy                  0.334
     Zr     1      Dzx                  0.371
     Zr     1      Dxx-yy               0.330
     Zr     1      Dxy                  0.393
     Zr     1      Px                   0.051
     Zr     1      Py                   0.040
     Zr     1      Pz                   0.042
     Zr     2      S                    1.994
     Zr     2      Px                   1.990
     Zr     2      Py                   1.989
     Zr     2      Pz                   1.989
     Zr     2      S                    0.243
     Zr     2      Dzz                  0.391
     Zr     2      Dzy                  0.334
     Zr     2      Dzx                  0.371
     Zr     2      Dxx-yy               0.330
     Zr     2      Dxy                  0.392
     Zr     2      Px                   0.051
     Zr     2      Py                   0.040
     Zr     2      Pz                   0.042
     Zr     3      S                    1.994
     Zr     3      Px                   1.990
     Zr     3      Py                   1.989
     Zr     3      Pz                   1.989
     Zr     3      S                    0.243
     Zr     3      Dzz                  0.391
     Zr     3      Dzy                  0.334
     Zr     3      Dzx                  0.371
     Zr     3      Dxx-yy               0.330
     Zr     3      Dxy                  0.393
     Zr     3      Px                   0.051
     Zr     3      Py                   0.040
     Zr     3      Pz                   0.042
     Zr     4      S                    1.994
     Zr     4      Px                   1.990
     Zr     4      Py                   1.989
     Zr     4      Pz                   1.989
     Zr     4      S                    0.243
     Zr     4      Dzz                  0.391
     Zr     4      Dzy                  0.334
     Zr     4      Dzx                  0.371
     Zr     4      Dxx-yy               0.330
     Zr     4      Dxy                  0.392
     Zr     4      Px                   0.051
     Zr     4      Py                   0.040
     Zr     4      Pz                   0.042
     Zr     5      S                    1.994
     Zr     5      Px                   1.989
     Zr     5      Py                   1.990
     Zr     5      Pz                   1.989
     Zr     5      S                    0.193
     Zr     5      Dzz                  0.377
     Zr     5      Dzy                  0.340
     Zr     5      Dzx                  0.349
     Zr     5      Dxx-yy               0.323
     Zr     5      Dxy                  0.404
     Zr     5      Px                   0.045
     Zr     5      Py                   0.052
     Zr     5      Pz                   0.062
     Zr     6      S                    1.994
     Zr     6      Px                   1.989
     Zr     6      Py                   1.990
     Zr     6      Pz                   1.989
     Zr     6      S                    0.193
     Zr     6      Dzz                  0.377
     Zr     6      Dzy                  0.340
     Zr     6      Dzx                  0.349
     Zr     6      Dxx-yy               0.323
     Zr     6      Dxy                  0.404
     Zr     6      Px                   0.045
     Zr     6      Py                   0.052
     Zr     6      Pz                   0.062
     Zr     7      S                    1.994
     Zr     7      Px                   1.989
     Zr     7      Py                   1.990
     Zr     7      Pz                   1.989
     Zr     7      S                    0.193
     Zr     7      Dzz                  0.377
     Zr     7      Dzy                  0.340
     Zr     7      Dzx                  0.349
     Zr     7      Dxx-yy               0.323
     Zr     7      Dxy                  0.404
     Zr     7      Px                   0.045
     Zr     7      Py                   0.052
     Zr     7      Pz                   0.062
     Zr     8      S                    1.994
     Zr     8      Px                   1.989
     Zr     8      Py                   1.990
     Zr     8      Pz                   1.989
     Zr     8      S                    0.193
     Zr     8      Dzz                  0.377
     Zr     8      Dzy                  0.340
     Zr     8      Dzx                  0.349
     Zr     8      Dxx-yy               0.323
     Zr     8      Dxy                  0.404
     Zr     8      Px                   0.045
     Zr     8      Py                   0.052
     Zr     8      Pz                   0.062
  -------------------------------------------
                           Total:     455.989
  -------------------------------------------

     Atomic Populations (Mulliken)
     -----------------------------
Species          Ion     s       p       d       f      Total   Charge (e)
==========================================================================
  Li              1     1.964   0.084   0.000   0.000   2.048     0.952
  Li              2     1.964   0.085   0.000   0.000   2.048     0.952
  Li              3     1.964   0.084   0.000   0.000   2.048     0.952
  Li              4     1.964   0.084   0.000   0.000   2.048     0.952
  O               1     1.824   5.122   0.000   0.000   6.946    -0.946
  O               2     1.824   5.122   0.000   0.000   6.946    -0.946
  O               3     1.824   5.122   0.000   0.000   6.946    -0.946
  O               4     1.824   5.122   0.000   0.000   6.946    -0.946
  O               5     1.840   5.132   0.000   0.000   6.972    -0.972
  O               6     1.840   5.132   0.000   0.000   6.972    -0.972
  O               7     1.840   5.132   0.000   0.000   6.972    -0.972
  O               8     1.840   5.132   0.000   0.000   6.972    -0.972
  O               9     1.828   5.110   0.000   0.000   6.938    -0.938
  O              10     1.828   5.109   0.000   0.000   6.938    -0.938
  O              11     1.828   5.110   0.000   0.000   6.938    -0.938
  O              12     1.828   5.110   0.000   0.000   6.938    -0.938
  O              13     1.836   5.151   0.000   0.000   6.987    -0.987
  O              14     1.836   5.152   0.000   0.000   6.987    -0.987
  O              15     1.836   5.152   0.000   0.000   6.987    -0.987
  O              16     1.836   5.151   0.000   0.000   6.987    -0.987
  O              17     1.834   5.147   0.000   0.000   6.981    -0.981
  O              18     1.834   5.147   0.000   0.000   6.981    -0.981
  O              19     1.834   5.147   0.000   0.000   6.981    -0.981
  O              20     1.834   5.147   0.000   0.000   6.981    -0.981
  O              21     1.836   5.142   0.000   0.000   6.978    -0.978
  O              22     1.836   5.142   0.000   0.000   6.978    -0.978
  O              23     1.836   5.142   0.000   0.000   6.978    -0.978
  O              24     1.836   5.142   0.000   0.000   6.978    -0.978
  O              25     1.821   5.150   0.000   0.000   6.971    -0.971
  O              26     1.821   5.150   0.000   0.000   6.971    -0.971
  O              27     1.821   5.150   0.000   0.000   6.971    -0.971
  O              28     1.821   5.150   0.000   0.000   6.972    -0.972
  O              29     1.837   5.125   0.000   0.000   6.962    -0.962
  O              30     1.837   5.125   0.000   0.000   6.962    -0.962
  O              31     1.837   5.125   0.000   0.000   6.962    -0.962
  O              32     1.837   5.125   0.000   0.000   6.962    -0.962
  O              33     1.832   5.131   0.000   0.000   6.963    -0.963
  O              34     1.832   5.131   0.000   0.000   6.963    -0.963
  O              35     1.832   5.131   0.000   0.000   6.963    -0.963
  O              36     1.832   5.131   0.000   0.000   6.963    -0.963
  O              37     1.841   5.112   0.000   0.000   6.953    -0.953
  O              38     1.841   5.112   0.000   0.000   6.953    -0.953
  O              39     1.841   5.112   0.000   0.000   6.953    -0.953
  O              40     1.841   5.112   0.000   0.000   6.953    -0.953
  O              41     1.835   5.122   0.000   0.000   6.957    -0.957
  O              42     1.835   5.123   0.000   0.000   6.957    -0.957
  O              43     1.835   5.122   0.000   0.000   6.957    -0.957
  O              44     1.835   5.123   0.000   0.000   6.957    -0.957
  O              45     1.826   5.134   0.000   0.000   6.960    -0.960
  O              46     1.826   5.134   0.000   0.000   6.960    -0.960
  O              47     1.826   5.134   0.000   0.000   6.960    -0.960
  O              48     1.826   5.134   0.000   0.000   6.960    -0.960
  P               1     0.883   1.848   0.000   0.000   2.732     2.268
  P               2     0.883   1.848   0.000   0.000   2.732     2.268
  P               3     0.883   1.848   0.000   0.000   2.732     2.268
  P               4     0.883   1.848   0.000   0.000   2.732     2.268
  P               5     0.869   1.828   0.000   0.000   2.698     2.302
  P               6     0.869   1.829   0.000   0.000   2.698     2.302
  P               7     0.869   1.828   0.000   0.000   2.698     2.302
  P               8     0.869   1.828   0.000   0.000   2.698     2.302
  P               9     0.866   1.824   0.000   0.000   2.690     2.310
  P              10     0.866   1.824   0.000   0.000   2.690     2.310
  P              11     0.866   1.824   0.000   0.000   2.690     2.310
  P              12     0.866   1.824   0.000   0.000   2.690     2.310
  Zr              1     2.236   6.100   1.818   0.000  10.154     1.846
  Zr              2     2.236   6.100   1.818   0.000  10.154     1.846
  Zr              3     2.236   6.100   1.818   0.000  10.154     1.846
  Zr              4     2.236   6.100   1.818   0.000  10.154     1.846
  Zr              5     2.187   6.127   1.792   0.000  10.106     1.894
  Zr              6     2.187   6.127   1.792   0.000  10.106     1.894
  Zr              7     2.187   6.127   1.792   0.000  10.106     1.894
  Zr              8     2.187   6.127   1.792   0.000  10.106     1.894
==========================================================================

                 Bond                   Population      Length (A)
======================================================================
              O 28 -- P 4                    0.69        1.51343
              O 27 -- P 3                    0.69        1.51343
              O 26 -- P 2                    0.69        1.51343
              O 25 -- P 1                    0.69        1.51343
              O 48 -- P 10                   0.66        1.51519
              O 46 -- P 12                   0.66        1.51520
              O 45 -- P 11                   0.66        1.51520
              O 47 -- P 9                    0.66        1.51520
              O 35 -- P 11                   0.68        1.51543
              O 36 -- P 12                   0.68        1.51543
              O 33 -- P 9                    0.68        1.51543
              O 34 -- P 10                   0.68        1.51544
              O 40 -- P 2                    0.67        1.51717
              O 39 -- P 1                    0.67        1.51717
              O 38 -- P 4                    0.67        1.51717
              O 37 -- P 3                    0.67        1.51717
              O 41 -- P 8                    0.66        1.51743
              O 44 -- P 5                    0.66        1.51743
              O 43 -- P 6                    0.66        1.51743
              O 42 -- P 7                    0.66        1.51743
              O 30 -- P 6                    0.68        1.52038
              O 29 -- P 5                    0.68        1.52038
              O 31 -- P 7                    0.68        1.52038
              O 32 -- P 8                    0.68        1.52038
              O 10 -- P 10                   0.64        1.52848
              O 12 -- P 12                   0.64        1.52848
              O 11 -- P 11                   0.64        1.52848
              O 9  -- P 9                    0.64        1.52848
              O 4  -- P 8                    0.63        1.53218
              O 3  -- P 7                    0.63        1.53218
              O 2  -- P 6                    0.63        1.53218
              O 1  -- P 5                    0.63        1.53218
              O 16 -- P 6                    0.62        1.54042
              O 13 -- P 7                    0.62        1.54042
              O 15 -- P 5                    0.62        1.54042
              O 14 -- P 8                    0.62        1.54042
              O 21 -- P 11                   0.60        1.54498
              O 23 -- P 9                    0.60        1.54499
              O 22 -- P 12                   0.60        1.54499
              O 24 -- P 10                   0.60        1.54499
              O 19 -- P 2                    0.62        1.54550
              O 17 -- P 4                    0.62        1.54550
              O 20 -- P 1                    0.62        1.54550
              O 18 -- P 3                    0.62        1.54550
              O 8  -- P 4                    0.61        1.54685
              O 7  -- P 3                    0.61        1.54685
              O 5  -- P 1                    0.61        1.54685
              O 6  -- P 2                    0.61        1.54685
              Li 4 -- O 19                   0.08        1.94624
              Li 1 -- O 18                   0.08        1.94624
              Li 2 -- O 17                   0.08        1.94624
              Li 3 -- O 20                   0.08        1.94625
              Li 4 -- O 22                   0.07        2.00661
              Li 1 -- O 23                   0.07        2.00661
              Li 3 -- O 21                   0.07        2.00661
              Li 2 -- O 24                   0.07        2.00661
              Li 2 -- O 16                   0.05        2.00664
              Li 3 -- O 13                   0.05        2.00665
              Li 4 -- O 14                   0.05        2.00666
              Li 1 -- O 15                   0.05        2.00666
              O 3  -- Zr 3                   0.42        2.01638
              O 4  -- Zr 4                   0.42        2.01638
              O 2  -- Zr 2                   0.42        2.01638
              O 1  -- Zr 1                   0.42        2.01638
              Li 3 -- O 8                    0.09        2.02127
              Li 1 -- O 6                    0.09        2.02127
              Li 4 -- O 7                    0.09        2.02127
              Li 2 -- O 5                    0.09        2.02127
              O 12 -- Zr 4                   0.40        2.02259
              O 11 -- Zr 3                   0.40        2.02259
              O 10 -- Zr 2                   0.40        2.02259
              O 9  -- Zr 1                   0.40        2.02259
              O 47 -- Zr 7                   0.39        2.04625
              O 46 -- Zr 6                   0.39        2.04626
              O 45 -- Zr 5                   0.39        2.04626
              O 48 -- Zr 8                   0.39        2.04626
              O 43 -- Zr 7                   0.34        2.05444
              O 42 -- Zr 6                   0.34        2.05444
              O 44 -- Zr 8                   0.34        2.05444
              O 41 -- Zr 5                   0.34        2.05444
              O 36 -- Zr 8                   0.37        2.08300
              O 33 -- Zr 5                   0.37        2.08300
              O 35 -- Zr 7                   0.37        2.08300
              O 34 -- Zr 6                   0.37        2.08300
              O 40 -- Zr 8                   0.36        2.08508
              O 39 -- Zr 7                   0.36        2.08508
              O 38 -- Zr 6                   0.36        2.08508
              O 37 -- Zr 5                   0.36        2.08508
              O 32 -- Zr 8                   0.36        2.08712
              O 29 -- Zr 5                   0.36        2.08712
              O 31 -- Zr 7                   0.36        2.08712
              O 30 -- Zr 6                   0.36        2.08712
              O 25 -- Zr 5                   0.40        2.09085
              O 27 -- Zr 7                   0.40        2.09085
              O 26 -- Zr 6                   0.40        2.09085
              O 28 -- Zr 8                   0.40        2.09086
              O 23 -- Zr 3                   0.33        2.09386
              O 24 -- Zr 4                   0.33        2.09386
              O 22 -- Zr 2                   0.33        2.09386
              O 21 -- Zr 1                   0.33        2.09387
              O 7  -- Zr 3                   0.33        2.10909
              O 6  -- Zr 2                   0.33        2.10909
              O 8  -- Zr 4                   0.33        2.10909
              O 5  -- Zr 1                   0.33        2.10909
              O 15 -- Zr 3                   0.34        2.11017
              O 14 -- Zr 2                   0.34        2.11017
              O 13 -- Zr 1                   0.34        2.11017
              O 16 -- Zr 4                   0.34        2.11017
              O 20 -- Zr 4                   0.36        2.12081
              O 17 -- Zr 1                   0.36        2.12081
              O 19 -- Zr 3                   0.36        2.12081
              O 18 -- Zr 2                   0.36        2.12081
              O 16 -- O 30                  -0.14        2.45865
              O 13 -- O 31                  -0.14        2.45865
              O 15 -- O 29                  -0.14        2.45865
              O 14 -- O 32                  -0.14        2.45865
              O 12 -- O 46                  -0.13        2.47066
              O 11 -- O 45                  -0.13        2.47066
              O 10 -- O 48                  -0.13        2.47066
              O 9  -- O 47                  -0.13        2.47066
              O 19 -- O 26                  -0.13        2.47411
              O 18 -- O 27                  -0.13        2.47411
              O 20 -- O 25                  -0.13        2.47411
              O 17 -- O 28                  -0.13        2.47412
              O 21 -- O 45                  -0.13        2.47450
              O 22 -- O 46                  -0.13        2.47451
              O 24 -- O 48                  -0.13        2.47451
              O 23 -- O 47                  -0.13        2.47451
              O 21 -- O 35                  -0.13        2.47850
              O 24 -- O 34                  -0.13        2.47851
              O 22 -- O 36                  -0.13        2.47851
              O 23 -- O 33                  -0.13        2.47851
              O 4  -- O 41                  -0.13        2.48607
              O 3  -- O 42                  -0.13        2.48607
              O 2  -- O 43                  -0.13        2.48607
              O 1  -- O 44                  -0.13        2.48607
              O 4  -- O 14                  -0.13        2.49584
              O 3  -- O 13                  -0.13        2.49584
              O 2  -- O 16                  -0.13        2.49584
              O 1  -- O 15                  -0.13        2.49584
              O 19 -- O 40                  -0.13        2.49815
              O 17 -- O 38                  -0.13        2.49815
              O 20 -- O 39                  -0.13        2.49815
              O 18 -- O 37                  -0.13        2.49815
              O 16 -- O 43                  -0.13        2.50046
              O 15 -- O 44                  -0.13        2.50046
              O 13 -- O 42                  -0.13        2.50046
              O 14 -- O 41                  -0.13        2.50046
              O 8  -- O 28                  -0.13        2.50208
              O 7  -- O 27                  -0.13        2.50208
              O 6  -- O 26                  -0.13        2.50208
              O 5  -- O 25                  -0.13        2.50208
              O 8  -- O 17                  -0.12        2.50334
              O 7  -- O 18                  -0.12        2.50334
              O 6  -- O 19                  -0.12        2.50334
              O 5  -- O 20                  -0.12        2.50334
              O 11 -- O 35                  -0.13        2.50452
              O 10 -- O 34                  -0.13        2.50452
              O 12 -- O 36                  -0.13        2.50453
              O 9  -- O 33                  -0.13        2.50453
              O 2  -- O 30                  -0.12        2.50569
              O 3  -- O 31                  -0.12        2.50569
              O 1  -- O 29                  -0.12        2.50569
              O 4  -- O 32                  -0.12        2.50569
              O 8  -- O 38                  -0.12        2.50844
              O 7  -- O 37                  -0.12        2.50844
              O 5  -- O 39                  -0.12        2.50844
              O 6  -- O 40                  -0.12        2.50844
              O 28 -- O 38                  -0.13        2.50956
              O 27 -- O 37                  -0.13        2.50956
              O 26 -- O 40                  -0.13        2.50956
              O 25 -- O 39                  -0.13        2.50956
              O 36 -- O 46                  -0.13        2.51033
              O 35 -- O 45                  -0.13        2.51033
              O 34 -- O 48                  -0.13        2.51033
              O 33 -- O 47                  -0.13        2.51034
              O 11 -- O 21                  -0.12        2.51133
              O 12 -- O 22                  -0.12        2.51134
              O 10 -- O 24                  -0.12        2.51134
              O 9  -- O 23                  -0.12        2.51134
              O 32 -- O 41                  -0.12        2.51807
              O 31 -- O 42                  -0.12        2.51807
              O 29 -- O 44                  -0.12        2.51807
              O 30 -- O 43                  -0.12        2.51807
              O 15 -- O 23                  -0.04        2.66979
              O 14 -- O 22                  -0.04        2.66979
              O 16 -- O 24                  -0.04        2.66979
              O 13 -- O 21                  -0.04        2.66979
              O 8  -- O 20                  -0.04        2.67182
              O 6  -- O 18                  -0.04        2.67182
              O 5  -- O 17                  -0.04        2.67182
              O 7  -- O 19                  -0.04        2.67182
              O 26 -- O 46                  -0.03        2.85523
              O 25 -- O 45                  -0.03        2.85523
              O 27 -- O 47                  -0.03        2.85523
              O 28 -- O 48                  -0.03        2.85524
              O 16 -- O 20                  -0.02        2.86048
              O 15 -- O 19                  -0.02        2.86048
              O 13 -- O 17                  -0.02        2.86048
              O 14 -- O 18                  -0.02        2.86048
              O 31 -- O 35                  -0.02        2.86448
              O 30 -- O 34                  -0.02        2.86448
              O 32 -- O 36                  -0.02        2.86448
              O 29 -- O 33                  -0.02        2.86448
              O 27 -- O 39                  -0.03        2.86519
              O 26 -- O 38                  -0.03        2.86519
              O 25 -- O 37                  -0.03        2.86519
              O 28 -- O 40                  -0.03        2.86520
              O 36 -- O 48                  -0.02        2.86572
              O 33 -- O 45                  -0.02        2.86572
              O 35 -- O 47                  -0.02        2.86573
              O 34 -- O 46                  -0.02        2.86573
              O 9  -- O 21                  -0.02        2.86885
              O 12 -- O 24                  -0.02        2.86885
              O 11 -- O 23                  -0.02        2.86885
              O 10 -- O 22                  -0.02        2.86885
              O 3  -- O 11                  -0.02        2.88451
              O 4  -- O 12                  -0.02        2.88451
              O 1  -- O 9                   -0.02        2.88451
              O 2  -- O 10                  -0.02        2.88451
              Li 2 -- O 30                  -0.02        2.89222
              Li 4 -- O 32                  -0.02        2.89223
              Li 1 -- O 29                  -0.02        2.89223
              Li 3 -- O 31                  -0.02        2.89223
              O 28 -- O 32                  -0.02        2.90135
              O 25 -- O 29                  -0.02        2.90135
              O 27 -- O 31                  -0.02        2.90135
              O 26 -- O 30                  -0.02        2.90135
              O 28 -- O 36                  -0.02        2.90702
              O 25 -- O 33                  -0.02        2.90702
              O 27 -- O 35                  -0.02        2.90702
              O 26 -- O 34                  -0.02        2.90702
              O 43 -- O 47                  -0.02        2.90830
              O 44 -- O 48                  -0.02        2.90831
              O 42 -- O 46                  -0.02        2.90831
              O 41 -- O 45                  -0.02        2.90831
              O 4  -- O 16                  -0.02        2.91450
              O 3  -- O 15                  -0.02        2.91450
              O 2  -- O 14                  -0.02        2.91450
              O 1  -- O 13                  -0.02        2.91450
              O 20 -- O 24                  -0.02        2.93305
              O 19 -- O 23                  -0.02        2.93305
              O 18 -- O 22                  -0.02        2.93305
              O 17 -- O 21                  -0.02        2.93305
              O 31 -- O 39                  -0.01        2.94805
              O 30 -- O 38                  -0.01        2.94805
              O 32 -- O 40                  -0.01        2.94805
              O 29 -- O 37                  -0.01        2.94805
              O 40 -- O 44                  -0.02        2.95245
              O 39 -- O 43                  -0.02        2.95245
              O 38 -- O 42                  -0.02        2.95245
              O 37 -- O 41                  -0.02        2.95245
              O 9  -- O 11                  -0.01        2.99198
              O 10 -- O 12                  -0.01        2.99198
              O 7  -- O 11                  -0.01        2.99722
              O 6  -- O 10                  -0.01        2.99722
              O 8  -- O 12                  -0.01        2.99722
              O 5  -- O 9                   -0.01        2.99722
======================================================================


Writing analysis data to ml_dos.castep_bin

Writing model to ml_dos.check
 
 A BibTeX formatted list of references used in this run has been written to 
 ml_dos.bib
 
Initialisation time =     17.74 s
Calculation time    =   5708.74 s
Finalisation time   =      8.33 s
Total time          =   5734.81 s
Peak Memory Use     = 6591928 kB
 
Overall parallel efficiency rating: Very good (82%)
 
Data was distributed by:-
G-vector (2-way); efficiency rating: Excellent (91%)
k-point (8-way); efficiency rating: Excellent (90%)
