 +-------------------------------------------------+
 |                                                 |
 |      CCC   AA    SSS  TTTTT  EEEEE  PPPP        |
 |     C     A  A  S       T    E      P   P       |
 |     C     AAAA   SS     T    EEE    PPPP        |
 |     C     A  A     S    T    E      P           |
 |      CCC  A  A  SSS     T    EEEEE  P           |
 |                                                 |
 +-------------------------------------------------+
 |                                                 |
 | Welcome to Academic Release CASTEP version 25.12|
 | Ab Initio Total Energy Program                  |
 |                                                 |
 | Authors:                                        |
 | M. Segall, M. Probert, C. Pickard, P. Hasnip,   |
 | S. Clark, K. Refson, J. R. Yates,               |
 | A. Bartok-Partay, M. Payne                      |
 |                                                 |
 | Contributors:                                   |
 | P. Lindan, P. Haynes, J. White, V. Milman,      |
 | N. Govind, M. Gibson, P. Tulip, V. Cocula,      |
 | B. Montanari, D. Quigley, M. Glover,            |
 | L. Bernasconi, A. Perlov, M. Plummer,           |
 | E. McNellis, J. Meyer, J. Gale, D. Jochym       |
 | J. Aarons, B. Walker, R. Gillen, D. Jones       |
 | T. Green, I. J. Bush, C. J. Armstrong,          |
 | E. J. Higgins, E. L. Brown, M. S. McFly,        |
 | J. Wilkins, B-C. Shih, P. J. P. Byrne,          |
 | R. J. Maurer, J. C. Womack, J. Dziedzic,        |
 | L. LeBlanc, T. K. Stenczel, J. Kermode,         |
 | S. Sturniolo, B. Shi, B. Durham, M. Evans,      |
 | M. J. Smith, A. Tamerus, Z. Hawkhead,           |
 | V. Ravindran, T. Hollins, S. A. Joyce,          |
 | R. T. Strong, A. M. Reilly, S. J. Donaldson,    |
 | J. C. A. Prentice                               |
 |                                                 |
 | Copyright (c) 2000 - 2024                       |
 |                                                 |
 |     Distributed under license from Cambridge    |
 |     Enterprise for academic use only.           |
 |                                                 |
 | Please cite                                     |
 |                                                 |
 |     "First principles methods using CASTEP"     |
 |                                                 |
 |         Zeitschrift fuer Kristallographie       |
 |           220(5-6) pp. 567-570 (2005)           |
 |                                                 |
 | S. J. Clark, M. D. Segall, C. J. Pickard,       |
 | P. J. Hasnip, M. J. Probert, K. Refson,         |
 | M. C. Payne                                     |
 |                                                 |
 |       in all publications arising from          |
 |              your use of CASTEP                 |
 |                                                 |
 +-------------------------------------------------+
 |                                                 |
 |              http://www.castep.org              |
 |                                                 |
 +-------------------------------------------------+



 Compiled for linux_x86_64_gfortran10 on Sun, 13 Jul 2025 14:49:40 -0400
 from code version git version unavailable
 Compiler: GNU Fortran 13.3.0; Optimisation: fast
 Comms   : Open MPI v5.0.3
 MATHLIBS: flexiblas (IMKL) (LAPACK version 3.12.0)
 FFT Lib : fftw3 version fftw-3.3.10-sse2-avx-avx2-avx2_128
 Fundamental constants values: CODATA 2018

 Run started: Thu, 19 Feb 2026 22:56:39 -0500
 Warning in parameters_read: presetting of magnetic moments on atoms cannot be guaranteed when metals_method /= density mixing

 Atomic calculation performed for O: 1s2 2s2 2p4

 Converged in 61 iterations to an ae energy of -2040.902 eV

   ============================================================                
   | Pseudopotential Report - Date of generation 19-02-2026   |                
   ------------------------------------------------------------                
   | Element: O Ionic charge:  6.00 Level of theory: PBE      |                
   | Atomic Solver: Koelling-Harmon                           |                
   |                                                          |                
   |               Reference Electronic Structure             |                
   |         Orbital         Occupation         Energy        |                
   |            2s              2.000           -0.881        |                
   |            2p              4.000           -0.332        |                
   |                                                          |                
   |                 Pseudopotential Definition               |                
   |        Beta     l      e      Rc     scheme   norm       |                
   |          1      0   -0.881   1.100     qc      0         |                
   |          2      0    0.250   1.100     qc      0         |                
   |          3      1   -0.332   1.100     qc      0         |                
   |          4      1    0.250   1.100     qc      0         |                
   |         loc     2    0.000   1.100     pn      0         |                
   |                                                          |                
   | Augmentation charge Rinner = 0.769                       |                
   | Partial core correction Rc = 0.769                       |                
   ------------------------------------------------------------                
   | "2|1.1|17|20|23|20:21(qc=8)"                             |                
   ------------------------------------------------------------                
   |      Author: Chris J. Pickard, Cambridge University      |                
   ============================================================                

 Atomic calculation performed for P: 1s2 2s2 2p6 3s2 3p3

 Converged in 56 iterations to an ae energy of -9303.626 eV

   ============================================================                
   | Pseudopotential Report - Date of generation 19-02-2026   |                
   ------------------------------------------------------------                
   | Element: P Ionic charge:  5.00 Level of theory: PBE      |                
   | Atomic Solver: Koelling-Harmon                           |                
   |                                                          |                
   |               Reference Electronic Structure             |                
   |         Orbital         Occupation         Energy        |                
   |            3s              2.000           -0.513        |                
   |            3p              3.000           -0.202        |                
   |                                                          |                
   |                 Pseudopotential Definition               |                
   |        Beta     l      e      Rc     scheme   norm       |                
   |          1      0   -0.513   1.807     qc      0         |                
   |          2      0    0.250   1.807     qc      0         |                
   |          3      1   -0.202   1.807     qc      0         |                
   |          4      1    0.250   1.807     qc      0         |                
   |          5      2    0.000   1.807     qc      0         |                
   |          6      2    0.250   1.807     qc      0         |                
   |         loc     3    0.000   1.807     pn      0         |                
   |                                                          |                
   | Augmentation charge Rinner = 1.263                       |                
   | Partial core correction Rc = 1.263                       |                
   ------------------------------------------------------------                
   | "3|1.8|4|4|5|30:31:32"                                   |                
   ------------------------------------------------------------                
   |      Author: Chris J. Pickard, Cambridge University      |                
   ============================================================                

 Atomic calculation performed for Fe: 1s2 2s2 2p6 3s2 3p6 3d6 4s2

 Converged in 96 iterations to an ae energy of -34625.102 eV

   ============================================================                
   | Pseudopotential Report - Date of generation 19-02-2026   |                
   ------------------------------------------------------------                
   | Element: Fe Ionic charge:  8.00 Level of theory: PBE     |                
   | Atomic Solver: Koelling-Harmon                           |                
   |                                                          |                
   |               Reference Electronic Structure             |                
   |         Orbital         Occupation         Energy        |                
   |            3d              6.000           -0.276        |                
   |            4s              2.000           -0.194        |                
   |                                                          |                
   |                 Pseudopotential Definition               |                
   |        Beta     l      e      Rc     scheme   norm       |                
   |          1      0   -0.194   2.399     qc      0         |                
   |          2      0    0.250   2.399     qc      0         |                
   |          3      1    0.000   2.399     qc      0         |                
   |          4      1    0.250   2.399     qc      0         |                
   |          5      2   -0.276   1.997     qc      0         |                
   |          6      2    0.250   1.997     qc      0         |                
   |         loc     3    0.000   2.399     pn      0         |                
   |                                                          |                
   | Augmentation charge Rinner = 1.000                       |                
   | Partial core correction Rc = 1.000                       |                
   ------------------------------------------------------------                
   | "3|2.4|2.4|1.0|8|9|10|40:41:32U2U2(qc=5.5)"              |                
   ------------------------------------------------------------                
   |      Author: Chris J. Pickard, Cambridge University      |                
   ============================================================                

 Pseudo atomic calculation performed for O 2s2 2p4

 Converged in 24 iterations to a total energy of -432.3399 eV

 Pseudo atomic calculation performed for P 3s2 3p3

 Converged in 18 iterations to a total energy of -214.2237 eV

 Pseudo atomic calculation performed for Fe 3d6 4s2

 Converged in 34 iterations to a total energy of -853.8318 eV
 Calculation parallelised over 15 processes.
 Data is distributed by k-point(15-way)

 ************************************ Title ************************************
 

 ***************************** General Parameters ******************************
  
 output verbosity                               : normal  (1)
 write checkpoint data to                       : ml_dos.check
 type of calculation                            : Electronic Spectroscopy
 stress calculation                             : off
 density difference calculation                 : off
 electron localisation func (ELF) calculation   : off
 Hirshfeld analysis                             : off
 polarisation (Berry phase) analysis            : off
 molecular orbital projected DOS                : off
 deltaSCF calculation                           : off
 unlimited duration calculation
 timing information                             : on
 memory usage estimate                          : on
 write extra output files                       : on
 write final potential to formatted file        : off
 write final density to formatted file          : off
 write BibTeX reference list                    : on
 write OTFG pseudopotential files               : on
 write electrostatic potential file             : on
 write bands file                               : on
 checkpoint writing                             : both castep_bin and check files
  
 output         length unit                     : A
 output           mass unit                     : amu
 output           time unit                     : ps
 output         charge unit                     : e
 output           spin unit                     : hbar/2
 output         energy unit                     : eV
 output          force unit                     : eV/A
 output       velocity unit                     : A/ps
 output       pressure unit                     : GPa
 output     inv_length unit                     : 1/A
 output      frequency unit                     : cm-1
 output force constant unit                     : eV/A**2
 output         volume unit                     : A**3
 output   IR intensity unit                     : (D/A)**2/amu
 output         dipole unit                     : D
 output         efield unit                     : eV/A/e
 output        entropy unit                     : J/mol/K
 output    efield chi2 unit                     : pm/V
  
 wavefunctions paging                           : none
 random number generator seed                   :  225639926
 data distribution                              : optimal for this architecture
 optimization strategy                          : balance speed and memory

 *********************** Exchange-Correlation Parameters ***********************
  
 using functional                               : Perdew Burke Ernzerhof
 relativistic treatment                         : Koelling-Harmon
 DFT+D: Semi-empirical dispersion correction    : off

 ************************* Pseudopotential Parameters **************************
  
 pseudopotential representation                 : reciprocal space
 <beta|phi> representation                      : reciprocal space
 spin-orbit coupling                            : off

 **************************** Basis Set Parameters *****************************
  
 plane wave basis set cut-off                   :   900.0000   eV
 size of standard grid                          :     2.0000
 size of   fine   gmax                          :    30.7390   1/A
 finite basis set correction                    : none

 **************************** Electronic Parameters ****************************
  
 number of  electrons                           :  148.0    
 net charge of system                           :  0.000    
 net spin   of system                           :  0.000    
 number of  up  spins                           :  74.00    
 number of down spins                           :  74.00    
 treating system as spin-polarized
 number of bands                                :         89
 electron temperature                           :     0.0000   K

 ********************* Electronic Minimization Parameters **********************
  
 Method: Treating system as metallic with ensemble DFT treatment of electrons,
         and number of  SD  steps               :          1
         and number of  CG  steps               :          4
  
 total energy / atom convergence tol.           : 0.1000E-05   eV
 max force / atom convergence tol.              : ignored
 convergence tolerance window                   :          3   cycles
 max. number of SCF cycles                      :        100
 number of fixed-spin iterations                :         10
 smearing scheme                                : Gaussian
 smearing width                                 : 0.2000       eV
 Fermi energy convergence tolerance             : 0.2721E-13   eV
 number of occupancy cycles                     :          6
 periodic dipole correction                     : NONE

 *********************** Population Analysis Parameters ************************
  
 Population analysis with cutoff                :  3.000       A
 Population analysis output                     : summary and pdos components
 Partial DOS weights calculated

 ********************* Electronic Spectroscopy Parameters **********************
  
 electronic spectroscopy with theory level      : DFT       
 spectroscopy calculation                       : density of states
 max. number of iterations                      :         60
 max. steps per iteration                       :          5
 number of bands / k-point                      :        137
 band convergence tolerance                     : 0.1000E-05   eV
 write orbitals file                            : off

 *******************************************************************************
  

                           -------------------------------
                                      Unit Cell
                           -------------------------------
        Real Lattice(A)                      Reciprocal Lattice(1/A)
     9.9727760     0.0000000     0.0000000        0.630033735   0.000076098  -0.000121820
    -0.0007140     5.9113830     0.0000000        0.000000000   1.062895994   0.000065235
     0.0009420    -0.0002990     4.8716840        0.000000000   0.000000000   1.289735809

                       Lattice parameters(A)       Cell Angles
                    a =      9.972776          alpha =   90.003518
                    b =      5.911383          beta  =   89.988921
                    c =      4.871684          gamma =   90.006920

                       Current cell volume =           287.199892       A**3
                                   density =             2.100507   AMU/A**3
                                           =             3.487974     g/cm^3

                           -------------------------------
                                     Cell Contents
                           -------------------------------
                         Total number of ions in cell =   24
                      Total number of species in cell =    3
                        Max number of any one species =   16

            xxxxxxxxxxxxxxxxxxxxxxxxxxxxxxxxxxxxxxxxxxxxxxxxxxxxxxxxxxxx
            x  Element    Atom        Fractional coordinates of atoms  x
            x            Number           u          v          w      x
            x----------------------------------------------------------x
            x  O            1         0.621698   0.249906   0.782412   x 
            x  O            2         0.121538   0.250353   0.717853   x 
            x  O            3         0.378005   0.750139   0.217573   x 
            x  O            4         0.878692   0.750338   0.281924   x 
            x  O            5         0.945655   0.250564   0.348013   x 
            x  O            6         0.446278   0.250601   0.149806   x 
            x  O            7         0.054235   0.749251   0.651829   x 
            x  O            8         0.554117   0.749828   0.850278   x 
            x  O            9         0.670276   0.047187   0.237498   x 
            x  O           10         0.170030   0.452837   0.261483   x 
            x  O           11         0.329901   0.547067   0.761982   x 
            x  O           12         0.829884   0.952862   0.738430   x 
            x  O           13         0.329652   0.952537   0.762573   x 
            x  O           14         0.830039   0.546667   0.739095   x 
            x  O           15         0.670028   0.453016   0.237914   x 
            x  O           16         0.170341   0.047085   0.261464   x 
            x  P            1         0.596429   0.250350   0.090018   x 
            x  P            2         0.096207   0.250236   0.408485   x 
            x  P            3         0.403692   0.749904   0.910001   x 
            x  P            4         0.903751   0.749566   0.591442   x 
            x  Fe           1         0.774921   0.249082   0.540582   x 
            x  Fe           2         0.275218   0.249518   0.958482   x 
            x  Fe           3         0.224569   0.750221   0.459722   x 
            x  Fe           4         0.724844   0.750877   0.041144   x 
            xxxxxxxxxxxxxxxxxxxxxxxxxxxxxxxxxxxxxxxxxxxxxxxxxxxxxxxxxxxx


                         No user defined ionic velocities

                           -------------------------------
                                   Details of Species
                           -------------------------------

                               Mass of species in AMU
                                    O   15.9994000
                                    P   30.9737600
                                    Fe   55.8450000

                          Electric Quadrupole Moment (Barn)
                                    O   -0.0255800 Isotope  17
                                    P    1.0000000 No Isotope Defined
                                    Fe    0.1600000 Isotope  57
         xxxxxxxxxxxxxxxxxxxxxxxxxxxxxxxxxxxxxxxxxxxxxxxxxxxxxxxxxxxxxxxxxxxxxx
         |  Element    Atom         Initial            Initial magnetic       |
         |            Number    spin polarization        moment (uB)     Fix? |
         |--------------------------------------------------------------------|
         | O              1         0.000000              0.000       F       |
         | O              2         0.000000              0.000       F       |
         | O              3         0.000000              0.000       F       |
         | O              4         0.000000              0.000       F       |
         | O              5         0.000000              0.000       F       |
         | O              6         0.000000              0.000       F       |
         | O              7         0.000000              0.000       F       |
         | O              8         0.000000              0.000       F       |
         | O              9         0.000000              0.000       F       |
         | O             10         0.000000              0.000       F       |
         | O             11         0.000000              0.000       F       |
         | O             12         0.000000              0.000       F       |
         | O             13         0.000000              0.000       F       |
         | O             14         0.000000              0.000       F       |
         | O             15         0.000000              0.000       F       |
         | O             16         0.000000              0.000       F       |
         | P              1         0.000000              0.000       F       |
         | P              2         0.000000              0.000       F       |
         | P              3         0.000000              0.000       F       |
         | P              4         0.000000              0.000       F       |
         | Fe             1         0.562500              4.500       F       |
         | Fe             2        -0.562500             -4.500       F       |
         | Fe             3         0.562500              4.500       F       |
         | Fe             4        -0.562500             -4.500       F       |
         xxxxxxxxxxxxxxxxxxxxxxxxxxxxxxxxxxxxxxxxxxxxxxxxxxxxxxxxxxxxxxxxxxxxxx



         Quantisation axis:    0.00000   0.00000   1.00000

         Units for Hubbard U values are eV
         xxxxxxxxxxxxxxxxxxxxxxxxxxxxxxxxxxxxxxxxxxxxxxxxxxxxxxxxxxxxxxxxxxxx
         |  Element     Atom     Hubbard U   values by orbital type         |
         |             Number      s          p          d          f       |
         |------------------------------------------------------------------|
         |O             1         0.00000    0.00000    0.00000    0.00000  |
         |O             2         0.00000    0.00000    0.00000    0.00000  |
         |O             3         0.00000    0.00000    0.00000    0.00000  |
         |O             4         0.00000    0.00000    0.00000    0.00000  |
         |O             5         0.00000    0.00000    0.00000    0.00000  |
         |O             6         0.00000    0.00000    0.00000    0.00000  |
         |O             7         0.00000    0.00000    0.00000    0.00000  |
         |O             8         0.00000    0.00000    0.00000    0.00000  |
         |O             9         0.00000    0.00000    0.00000    0.00000  |
         |O            10         0.00000    0.00000    0.00000    0.00000  |
         |O            11         0.00000    0.00000    0.00000    0.00000  |
         |O            12         0.00000    0.00000    0.00000    0.00000  |
         |O            13         0.00000    0.00000    0.00000    0.00000  |
         |O            14         0.00000    0.00000    0.00000    0.00000  |
         |O            15         0.00000    0.00000    0.00000    0.00000  |
         |O            16         0.00000    0.00000    0.00000    0.00000  |
         |P             1         0.00000    0.00000    0.00000    0.00000  |
         |P             2         0.00000    0.00000    0.00000    0.00000  |
         |P             3         0.00000    0.00000    0.00000    0.00000  |
         |P             4         0.00000    0.00000    0.00000    0.00000  |
         |Fe            1         0.00000    0.00000    4.40000    0.00000  |
         |Fe            2         0.00000    0.00000    4.40000    0.00000  |
         |Fe            3         0.00000    0.00000    4.40000    0.00000  |
         |Fe            4         0.00000    0.00000    4.40000    0.00000  |
         xxxxxxxxxxxxxxxxxxxxxxxxxxxxxxxxxxxxxxxxxxxxxxxxxxxxxxxxxxxxxxxxxxxx


                          Files used for pseudopotentials:
                                    O 2|1.1|17|20|23|20:21(qc=8)
                                    P 3|1.8|4|4|5|30:31:32
                                    Fe 3|2.4|2.4|1.0|8|9|10|40:41:32U2U2(qc=5.5)

                           -------------------------------
                              k-Points For BZ Sampling
                           -------------------------------
                       MP grid size for SCF calculation is  3  4  5
                            with an offset of   0.000  0.000  0.000
                       Number of kpoints used =            30

                           -------------------------------
                               Symmetry and Constraints
                           -------------------------------

                      Maximum deviation from symmetry =  0.00000         ANG

                      Number of symmetry operations   =           1
                      Number of ionic constraints     =           3
                      Point group of crystal =     1: C1, 1, 1
                      Space group of crystal =     1: P1, P 1

             Set iprint > 1 for details on symmetry rotations/translations

                         Centre of mass is constrained
             Set iprint > 2 for details of linear ionic constraints

                         Number of cell constraints= 0
                         Cell constraints are:  1 2 3 4 5 6

                         External pressure/stress (GPa)
                          0.00000   0.00000   0.00000
                                    0.00000   0.00000
                                              0.00000
 
+---------------- MEMORY AND SCRATCH DISK ESTIMATES PER PROCESS --------------+
|                                                     Memory          Disk    |
| Baseline code, static data and system overhead      814.0 MB         0.0 MB |
| BLAS internal memory storage                          0.0 MB         0.0 MB |
| Model and support data                             1319.5 MB         0.0 MB |
| Electronic energy minimisation requirements         542.2 MB         0.0 MB |
| Force calculation requirements                       63.7 MB         0.0 MB |
|                                               ----------------------------- |
| Approx. total storage required per process         2675.7 MB         0.0 MB |
|                                                                             |
| Requirements will fluctuate during execution and may exceed these estimates |
+-----------------------------------------------------------------------------+
Calculating approximate eigenstates for fixed initial Hamiltonian
Cut-off for approx. calculation is   89.988 eV
Improving approx. states at cut-off of  450.000 eV
Resetting cut-off to  900.000 eV
Improving states further at cut-off of  900.000 eV
Calculating total energy with cut-off of  900.000 eV.

 Pseudo atomic calculation performed for O 2s2 2p4

 Converged in 24 iterations to a total energy of -432.3399 eV

 Pseudo atomic calculation performed for P 3s2 3p3

 Converged in 18 iterations to a total energy of -214.2237 eV

 Pseudo atomic calculation performed for Fe 3d6 4s2

 Converged in 34 iterations to a total energy of -853.8318 eV
------------------------------------------------------------------------ <-- SCF
SCF loop      Energy           Fermi           Energy gain       Timer   <-- SCF
                               energy          per atom          (sec)   <-- SCF
------------------------------------------------------------------------ <-- SCF
Initial  -1.08060797E+004  4.14605344E+000                        68.02  <-- SCF
      1  -1.13652856E+004  2.90543882E+000   2.33002469E+001     270.41  <-- SCF
      2  -1.13671298E+004  2.89593992E+000   7.68390110E-002     431.60  <-- SCF
      3  -1.13671435E+004  2.88865026E+000   5.70936041E-004     590.05  <-- SCF
      4  -1.13671488E+004  2.88143201E+000   2.23552955E-004     762.45  <-- SCF
      5  -1.13671505E+004  2.87961391E+000   7.08505416E-005     930.36  <-- SCF
      6  -1.13671506E+004  2.87961391E+000   2.91403500E-006    1098.14  <-- SCF
      7  -1.13671512E+004  2.87767621E+000   2.54084017E-005    1256.56  <-- SCF
      8  -1.13671524E+004  2.86955590E+000   4.98441915E-005    1436.39  <-- SCF
      9  -1.13671541E+004  2.86955590E+000   6.89906681E-005    1619.33  <-- SCF
     10  -1.13630246E+004  2.51227936E+000  -1.72059667E-001    1846.27  <-- SCF
     11  -1.13631105E+004  2.54474377E+000   3.57674024E-003    2021.86  <-- SCF
     12  -1.13631110E+004  2.54223038E+000   2.38461004E-005    2149.32  <-- SCF
     13  -1.13631110E+004  2.54218977E+000   1.55999006E-007    2264.15  <-- SCF
     14  -1.13631110E+004  2.54217723E+000   1.93026281E-009    2457.15  <-- SCF
------------------------------------------------------------------------ <-- SCF
 
Integrated Spin Density     =   -0.184457E-12 hbar/2
Integrated |Spin Density|   =     18.6016     hbar/2
 

     Hubbard U occupation numbers
     ----------------------------
Species   Ion   l  spin               occupancies
==================================================================
  Fe       1    2   up:   0.99  1.00  1.00  1.00  1.00
                    dn:   0.12  0.14  0.15  0.33  0.37
  Fe       2    2   up:   0.12  0.14  0.15  0.33  0.37
                    dn:   0.99  1.00  1.00  1.00  1.00
  Fe       3    2   up:   0.99  1.00  1.00  1.00  1.00
                    dn:   0.12  0.14  0.15  0.33  0.37
  Fe       4    2   up:   0.12  0.15  0.15  0.33  0.37
                    dn:   0.99  1.00  1.00  1.00  1.00
==================================================================

Final energy, E             =  -11363.11103866     eV
Final free energy (E-TS)    =  -11363.11103866     eV
(energies not corrected for finite basis set)
 
NB est. 0K energy (E-0.5TS)      =  -11363.11103866     eV
 

Writing analysis data to ml_dos.castep_bin

Writing model to ml_dos.check
 
+---------------- MEMORY AND SCRATCH DISK ESTIMATES PER PROCESS --------------+
|                                                     Memory          Disk    |
|                                               ----------------------------- |
| Approx. total storage required per process         1437.3 MB         0.0 MB |
|                                                                             |
| Requirements will fluctuate during execution and may exceed these estimates |
+-----------------------------------------------------------------------------+
 
  =====================================================================
  +                                                                   +
  +                 Calculation of Spectral Properties                +
  +                                                                   +
  + Calculation re-parallelised over 15 processes.                    +
  + There are 30 k-points distributed across 15 k-point groups.       +
  + Data distributed by G-vector(1-way), k-point(15-way), band(1-way) +
  + Data distributed by k-point(15-way)                               +
  +                                                                   +
  =====================================================================

 Pseudo atomic calculation performed for O 2s2 2p4

 Converged in 24 iterations to a total energy of -432.3399 eV

 Pseudo atomic calculation performed for P 3s2 3p3

 Converged in 18 iterations to a total energy of -214.2237 eV

 Pseudo atomic calculation performed for Fe 3d6 4s2

 Converged in 34 iterations to a total energy of -853.8318 eV

 Pseudo atomic calculation performed for O 2s2 2p4

 Converged in 24 iterations to a total energy of -432.3399 eV

 Pseudo atomic calculation performed for P 3s2 3p3

 Converged in 18 iterations to a total energy of -214.2237 eV

 Pseudo atomic calculation performed for Fe 3d6 4s2

 Converged in 34 iterations to a total energy of -853.8318 eV
  Starting k-point:        1 of        2 Time:      0.00 sec  |<-- SPEC

 Pseudo atomic calculation performed for O 2s2 2p4

 Converged in 24 iterations to a total energy of -432.3399 eV

 Pseudo atomic calculation performed for P 3s2 3p3

 Converged in 18 iterations to a total energy of -214.2237 eV

 Pseudo atomic calculation performed for Fe 3d6 4s2

 Converged in 34 iterations to a total energy of -853.8318 eV
  Starting k-point:        2 of        2 Time:     53.29 sec  |<-- SPEC

 Pseudo atomic calculation performed for O 2s2 2p4

 Converged in 24 iterations to a total energy of -432.3399 eV

 Pseudo atomic calculation performed for P 3s2 3p3

 Converged in 18 iterations to a total energy of -214.2237 eV

 Pseudo atomic calculation performed for Fe 3d6 4s2

 Converged in 34 iterations to a total energy of -853.8318 eV
  Starting k-point:        1 of        2 Time:    106.40 sec  |<-- SPEC

 Pseudo atomic calculation performed for O 2s2 2p4

 Converged in 24 iterations to a total energy of -432.3399 eV

 Pseudo atomic calculation performed for P 3s2 3p3

 Converged in 18 iterations to a total energy of -214.2237 eV

 Pseudo atomic calculation performed for Fe 3d6 4s2

 Converged in 34 iterations to a total energy of -853.8318 eV
  Starting k-point:        2 of        2 Time:    159.35 sec  |<-- SPEC

 Pseudo atomic calculation performed for O 2s2 2p4

 Converged in 24 iterations to a total energy of -432.3399 eV

 Pseudo atomic calculation performed for P 3s2 3p3

 Converged in 18 iterations to a total energy of -214.2237 eV

 Pseudo atomic calculation performed for Fe 3d6 4s2

 Converged in 34 iterations to a total energy of -853.8318 eV
  Check-pointing spectral run                                 |<-- SPEC
  Total time to compute matrix elements            214.52 sec |<-- SPEC
  
  + Calculation re-parallelised over 15 processes.                    +
  + Data distributed by k-point(15-way)                               +

 Pseudo atomic calculation performed for O 2s2 2p4

 Converged in 24 iterations to a total energy of -432.3399 eV

 Pseudo atomic calculation performed for P 3s2 3p3

 Converged in 18 iterations to a total energy of -214.2237 eV

 Pseudo atomic calculation performed for Fe 3d6 4s2

 Converged in 34 iterations to a total energy of -853.8318 eV

 ************************** Forces **************************
 *                                                          *
 *               Cartesian components (eV/A)                *
 * -------------------------------------------------------- *
 *                         x            y            z      *
 *                                                          *
 * O               1     -0.13490     -0.00370     -0.29322 *
 * O               2     -0.21709     -0.02088     -0.06852 *
 * O               3      0.16050     -0.00407      0.26424 *
 * O               4      0.19205     -0.00979      0.09358 *
 * O               5      0.18249     -0.02143     -0.09119 *
 * O               6     -0.01956     -0.01983      0.16772 *
 * O               7     -0.16424      0.02180      0.12198 *
 * O               8     -0.12449      0.01106     -0.16569 *
 * O               9     -0.00401      0.03420      0.16308 *
 * O              10      0.03587      0.03940     -0.15390 *
 * O              11      0.00596      0.01633     -0.14126 *
 * O              12      0.00783     -0.03129      0.12438 *
 * O              13      0.00371      0.01796     -0.17781 *
 * O              14     -0.01246      0.03348      0.08951 *
 * O              15      0.04128      0.00455      0.15962 *
 * O              16     -0.03820      0.03312     -0.10041 *
 * P               1      0.04971     -0.00003      0.16325 *
 * P               2     -0.02573     -0.04113      0.13720 *
 * P               3     -0.03005     -0.04477     -0.13892 *
 * P               4     -0.01686     -0.01819     -0.15003 *
 * Fe              1      0.02137      0.04808     -0.11242 *
 * Fe              2     -0.01425      0.02704      0.09867 *
 * Fe              3      0.05265     -0.01992      0.07505 *
 * Fe              4      0.04840     -0.05199     -0.06491 *
 *                                                          *
 ************************************************************

 Pseudo atomic calculation performed for O 2s2 2p4

 Converged in 24 iterations to a total energy of -432.3399 eV

 Pseudo atomic calculation performed for P 3s2 3p3

 Converged in 18 iterations to a total energy of -214.2237 eV

 Pseudo atomic calculation performed for Fe 3d6 4s2

 Converged in 34 iterations to a total energy of -853.8318 eV
Charge spilling parameter for spin component 1 = 1.03%
Charge spilling parameter for spin component 2 = 1.03%

                   Orbital Populations                  
  ---------------------------------------------------------------
     Ion    Atom   Orbital              Up        Down      Spin
  ---------------------------------------------------------------
      O     1      S                    0.931     0.918     0.013
      O     1      Px                   0.907     0.831     0.076
      O     1      Py                   0.923     0.884     0.039
      O     1      Pz                   0.793     0.775     0.018
      O     2      S                    0.918     0.931    -0.013
      O     2      Px                   0.830     0.907    -0.077
      O     2      Py                   0.884     0.923    -0.040
      O     2      Pz                   0.772     0.790    -0.018
      O     3      S                    0.931     0.918     0.013
      O     3      Px                   0.907     0.832     0.075
      O     3      Py                   0.923     0.884     0.039
      O     3      Pz                   0.792     0.775     0.018
      O     4      S                    0.919     0.931    -0.013
      O     4      Px                   0.830     0.907    -0.077
      O     4      Py                   0.884     0.923    -0.039
      O     4      Pz                   0.772     0.790    -0.018
      O     5      S                    0.931     0.919     0.013
      O     5      Px                   0.775     0.748     0.027
      O     5      Py                   0.913     0.887     0.027
      O     5      Pz                   0.911     0.870     0.041
      O     6      S                    0.918     0.930    -0.012
      O     6      Px                   0.750     0.777    -0.027
      O     6      Py                   0.887     0.913    -0.027
      O     6      Pz                   0.871     0.911    -0.041
      O     7      S                    0.931     0.918     0.013
      O     7      Px                   0.775     0.748     0.027
      O     7      Py                   0.914     0.886     0.028
      O     7      Pz                   0.912     0.870     0.042
      O     8      S                    0.918     0.931    -0.013
      O     8      Px                   0.749     0.776    -0.027
      O     8      Py                   0.886     0.913    -0.027
      O     8      Pz                   0.871     0.912    -0.041
      O     9      S                    0.932     0.936    -0.004
      O     9      Px                   0.874     0.867     0.006
      O     9      Py                   0.796     0.823    -0.027
      O     9      Pz                   0.858     0.845     0.014
      O    10      S                    0.936     0.932     0.004
      O    10      Px                   0.867     0.873    -0.007
      O    10      Py                   0.823     0.796     0.027
      O    10      Pz                   0.845     0.858    -0.013
      O    11      S                    0.932     0.936    -0.004
      O    11      Px                   0.874     0.867     0.007
      O    11      Py                   0.796     0.823    -0.028
      O    11      Pz                   0.858     0.845     0.014
      O    12      S                    0.936     0.932     0.004
      O    12      Px                   0.867     0.874    -0.007
      O    12      Py                   0.823     0.796     0.027
      O    12      Pz                   0.845     0.858    -0.013
      O    13      S                    0.932     0.936    -0.004
      O    13      Px                   0.873     0.867     0.007
      O    13      Py                   0.796     0.824    -0.028
      O    13      Pz                   0.859     0.845     0.013
      O    14      S                    0.936     0.932     0.004
      O    14      Px                   0.867     0.874    -0.007
      O    14      Py                   0.823     0.796     0.027
      O    14      Pz                   0.845     0.858    -0.013
      O    15      S                    0.932     0.936    -0.004
      O    15      Px                   0.874     0.867     0.007
      O    15      Py                   0.796     0.823    -0.027
      O    15      Pz                   0.858     0.845     0.014
      O    16      S                    0.936     0.932     0.004
      O    16      Px                   0.867     0.873    -0.007
      O    16      Py                   0.823     0.796     0.027
      O    16      Pz                   0.845     0.858    -0.013
      P     1      S                    0.456     0.458    -0.002
      P     1      Px                   0.308     0.308     0.000
      P     1      Py                   0.327     0.324     0.003
      P     1      Pz                   0.290     0.300    -0.009
      P     2      S                    0.461     0.459     0.002
      P     2      Px                   0.308     0.309    -0.000
      P     2      Py                   0.324     0.327    -0.003
      P     2      Pz                   0.301     0.292     0.009
      P     3      S                    0.457     0.459    -0.002
      P     3      Px                   0.308     0.308     0.000
      P     3      Py                   0.327     0.324     0.003
      P     3      Pz                   0.290     0.300    -0.009
      P     4      S                    0.461     0.459     0.002
      P     4      Px                   0.308     0.309    -0.000
      P     4      Py                   0.324     0.327    -0.003
      P     4      Pz                   0.301     0.292     0.009
     Fe     1      Dzz                  1.000     0.098     0.902
     Fe     1      Dzy                  0.999     0.202     0.798
     Fe     1      Dzx                  0.997     0.198     0.799
     Fe     1      Dxx-yy               0.999     0.176     0.822
     Fe     1      Dxy                  0.999     0.158     0.841
     Fe     1      S                    0.181     0.143     0.038
     Fe     1      Px                   0.043     0.036     0.007
     Fe     1      Py                   0.067     0.056     0.012
     Fe     1      Pz                   0.053     0.042     0.011
     Fe     2      Dzz                  0.099     1.000    -0.901
     Fe     2      Dzy                  0.200     0.999    -0.799
     Fe     2      Dzx                  0.199     0.997    -0.798
     Fe     2      Dxx-yy               0.178     0.999    -0.821
     Fe     2      Dxy                  0.158     0.999    -0.841
     Fe     2      S                    0.143     0.180    -0.038
     Fe     2      Px                   0.036     0.043    -0.007
     Fe     2      Py                   0.056     0.067    -0.012
     Fe     2      Pz                   0.042     0.053    -0.011
     Fe     3      Dzz                  1.000     0.098     0.902
     Fe     3      Dzy                  0.999     0.201     0.798
     Fe     3      Dzx                  0.997     0.198     0.799
     Fe     3      Dxx-yy               0.999     0.177     0.822
     Fe     3      Dxy                  0.999     0.158     0.841
     Fe     3      S                    0.181     0.143     0.038
     Fe     3      Px                   0.043     0.036     0.007
     Fe     3      Py                   0.067     0.056     0.012
     Fe     3      Pz                   0.053     0.042     0.011
     Fe     4      Dzz                  0.098     1.000    -0.902
     Fe     4      Dzy                  0.200     0.999    -0.799
     Fe     4      Dzx                  0.199     0.997    -0.798
     Fe     4      Dxx-yy               0.178     0.998    -0.820
     Fe     4      Dxy                  0.158     0.999    -0.840
     Fe     4      S                    0.142     0.180    -0.038
     Fe     4      Px                   0.036     0.043    -0.007
     Fe     4      Py                   0.056     0.067    -0.012
     Fe     4      Pz                   0.042     0.053    -0.011
  ---------------------------------------------------------------
                           Total:      73.998    73.998    -0.000
  ---------------------------------------------------------------

     Atomic Populations (Mulliken)
     -----------------------------
Species          Ion Spin      s       p       d       f      Total   Charge(e)   Spin(hbar/2)
==============================================================================================
  O               1   up:     0.931   2.622   0.000   0.000   3.553    -0.961        0.146
                  1   dn:     0.918   2.489   0.000   0.000   3.407
  O               2   up:     0.918   2.485   0.000   0.000   3.404    -0.956       -0.148
                  2   dn:     0.931   2.621   0.000   0.000   3.552
  O               3   up:     0.931   2.622   0.000   0.000   3.553    -0.961        0.144
                  3   dn:     0.918   2.491   0.000   0.000   3.408
  O               4   up:     0.919   2.485   0.000   0.000   3.404    -0.955       -0.146
                  4   dn:     0.931   2.619   0.000   0.000   3.551
  O               5   up:     0.931   2.599   0.000   0.000   3.530    -0.953        0.107
                  5   dn:     0.919   2.505   0.000   0.000   3.423
  O               6   up:     0.918   2.507   0.000   0.000   3.425    -0.957       -0.107
                  6   dn:     0.930   2.601   0.000   0.000   3.532
  O               7   up:     0.931   2.600   0.000   0.000   3.531    -0.953        0.109
                  7   dn:     0.918   2.504   0.000   0.000   3.422
  O               8   up:     0.918   2.506   0.000   0.000   3.424    -0.955       -0.108
                  8   dn:     0.931   2.601   0.000   0.000   3.532
  O               9   up:     0.932   2.528   0.000   0.000   3.460    -0.931       -0.011
                  9   dn:     0.936   2.535   0.000   0.000   3.471
  O              10   up:     0.936   2.536   0.000   0.000   3.472    -0.932        0.012
                 10   dn:     0.932   2.528   0.000   0.000   3.460
  O              11   up:     0.932   2.528   0.000   0.000   3.460    -0.931       -0.011
                 11   dn:     0.936   2.535   0.000   0.000   3.471
  O              12   up:     0.936   2.535   0.000   0.000   3.471    -0.931        0.011
                 12   dn:     0.932   2.528   0.000   0.000   3.460
  O              13   up:     0.932   2.528   0.000   0.000   3.460    -0.932       -0.012
                 13   dn:     0.936   2.536   0.000   0.000   3.472
  O              14   up:     0.936   2.534   0.000   0.000   3.470    -0.930        0.011
                 14   dn:     0.932   2.527   0.000   0.000   3.460
  O              15   up:     0.932   2.528   0.000   0.000   3.460    -0.931       -0.011
                 15   dn:     0.936   2.535   0.000   0.000   3.471
  O              16   up:     0.936   2.534   0.000   0.000   3.471    -0.930        0.011
                 16   dn:     0.932   2.527   0.000   0.000   3.459
  P               1   up:     0.456   0.925   0.000   0.000   1.382     2.229       -0.008
                  1   dn:     0.458   0.931   0.000   0.000   1.390
  P               2   up:     0.461   0.933   0.000   0.000   1.394     2.220        0.008
                  2   dn:     0.459   0.927   0.000   0.000   1.386
  P               3   up:     0.457   0.926   0.000   0.000   1.382     2.227       -0.008
                  3   dn:     0.459   0.931   0.000   0.000   1.390
  P               4   up:     0.461   0.933   0.000   0.000   1.394     2.219        0.008
                  4   dn:     0.459   0.927   0.000   0.000   1.386
  Fe              1   up:     0.181   0.164   4.994   0.000   5.339     1.551        4.229
                  1   dn:     0.143   0.134   0.833   0.000   1.110
  Fe              2   up:     0.143   0.134   0.833   0.000   1.110     1.552       -4.228
                  2   dn:     0.180   0.163   4.994   0.000   5.338
  Fe              3   up:     0.181   0.164   4.995   0.000   5.339     1.551        4.229
                  3   dn:     0.143   0.134   0.833   0.000   1.110
  Fe              4   up:     0.142   0.134   0.834   0.000   1.110     1.553       -4.227
                  4   dn:     0.180   0.163   4.994   0.000   5.337
==============================================================================================

                 Bond                   Population        Spin       Length (A)
================================================================================
              O 1  -- P 1                    0.67         0.01          1.51955
              O 3  -- P 3                    0.67         0.01          1.52009
              O 6  -- P 1                    0.67        -0.01          1.52543
              O 8  -- P 3                    0.67        -0.01          1.52805
              O 2  -- P 2                    0.66        -0.01          1.52822
              O 4  -- P 4                    0.66        -0.01          1.52850
              O 7  -- P 4                    0.67         0.01          1.52936
              O 5  -- P 2                    0.67         0.01          1.53011
              O 10 -- P 2                    0.57        -0.00          1.57764
              O 15 -- P 1                    0.57         0.00          1.57894
              O 14 -- P 4                    0.57        -0.00          1.57990
              O 13 -- P 3                    0.57         0.00          1.58000
              O 11 -- P 3                    0.57         0.00          1.58087
              O 12 -- P 4                    0.57        -0.00          1.58100
              O 9  -- P 1                    0.57         0.00          1.58160
              O 16 -- P 2                    0.57        -0.00          1.58167
              O 1  -- Fe 1                   0.34        -0.05          1.92932
              O 2  -- Fe 2                   0.34         0.05          1.92973
              O 4  -- Fe 4                   0.34         0.05          1.93150
              O 3  -- Fe 3                   0.34        -0.05          1.93194
              O 7  -- Fe 3                   0.32        -0.05          1.93930
              O 8  -- Fe 4                   0.32         0.05          1.94015
              O 5  -- Fe 1                   0.32        -0.05          1.94389
              O 6  -- Fe 2                   0.32         0.05          1.94413
              O 9  -- Fe 4                   0.24         0.05          2.06860
              O 13 -- Fe 2                   0.24         0.05          2.07061
              O 12 -- Fe 1                   0.24        -0.05          2.07276
              O 16 -- Fe 3                   0.24        -0.05          2.07499
              O 11 -- Fe 2                   0.24         0.05          2.07542
              O 15 -- Fe 4                   0.24         0.05          2.07794
              O 10 -- Fe 3                   0.24        -0.05          2.07814
              O 14 -- Fe 1                   0.24        -0.05          2.08129
              O 9  -- Fe 1                   0.14        -0.04          2.16650
              O 12 -- Fe 4                   0.14         0.04          2.16729
              O 16 -- Fe 2                   0.14         0.04          2.16885
              O 13 -- Fe 3                   0.14        -0.04          2.16920
              O 11 -- Fe 3                   0.14        -0.04          2.17142
              O 14 -- Fe 4                   0.14         0.04          2.17315
              O 15 -- Fe 1                   0.14        -0.04          2.17321
              O 10 -- Fe 2                   0.14         0.04          2.17334
              O 11 -- O 13                  -0.15        -0.00          2.39689
              O 10 -- O 16                  -0.15         0.00          2.39856
              O 9  -- O 15                  -0.15        -0.00          2.39901
              O 12 -- O 14                  -0.15         0.00          2.40118
              O 1  -- O 6                   -0.13        -0.00          2.50255
              O 3  -- O 8                   -0.13        -0.00          2.50703
              O 4  -- O 7                   -0.13         0.00          2.51266
              O 2  -- O 5                   -0.13         0.00          2.51479
              O 3  -- O 13                  -0.13        -0.00          2.56482
              O 1  -- O 9                   -0.13        -0.00          2.56649
              O 6  -- O 15                  -0.11         0.00          2.56804
              O 3  -- O 11                  -0.13        -0.00          2.56852
              O 1  -- O 15                  -0.13        -0.00          2.56867
              O 2  -- O 10                  -0.13         0.00          2.57087
              O 7  -- O 14                  -0.11        -0.00          2.57157
              O 5  -- O 10                  -0.11        -0.00          2.57168
              O 4  -- O 12                  -0.13         0.00          2.57207
              O 6  -- O 9                   -0.11         0.00          2.57288
              O 8  -- O 11                  -0.11         0.00          2.57318
              O 2  -- O 16                  -0.13         0.00          2.57362
              O 8  -- O 13                  -0.11         0.00          2.57499
              O 7  -- O 12                  -0.11        -0.00          2.57544
              O 4  -- O 14                  -0.13         0.00          2.57782
              O 5  -- O 16                  -0.11        -0.00          2.57794
              O 3  -- O 16                  -0.04        -0.00          2.72335
              O 3  -- O 10                  -0.04        -0.00          2.72677
              O 1  -- O 14                  -0.04        -0.00          2.72727
              O 2  -- O 11                  -0.04         0.00          2.72761
              O 1  -- O 12                  -0.04        -0.00          2.72772
              O 4  -- O 9                   -0.04         0.00          2.72898
              O 2  -- O 13                  -0.04         0.00          2.73048
              O 4  -- O 15                  -0.04         0.00          2.73216
               P 4 -- Fe 4                  -0.37         0.01          2.82516
              O 8  -- O 15                  -0.03         0.00          2.82537
               P 1 -- Fe 1                  -0.37        -0.01          2.82635
              O 6  -- O 11                  -0.03         0.00          2.82661
              O 8  -- O 9                   -0.03         0.00          2.82672
               P 2 -- Fe 2                  -0.37         0.01          2.82695
               P 3 -- Fe 3                  -0.37        -0.01          2.82923
              O 6  -- O 13                  -0.03         0.00          2.83126
              O 7  -- O 10                  -0.03        -0.00          2.83184
              O 5  -- O 14                  -0.03        -0.00          2.83238
              O 5  -- O 12                  -0.03        -0.00          2.83666
              O 7  -- O 16                  -0.03        -0.00          2.83833
              O 13 -- O 16                  -0.04        -0.00          2.95672
              O 9  -- O 12                  -0.04        -0.00          2.95877
              O 14 -- O 15                  -0.04         0.00          2.95917
              O 10 -- O 11                  -0.04         0.00          2.96179
================================================================================


Writing analysis data to ml_dos.castep_bin

Writing model to ml_dos.check
 
 A BibTeX formatted list of references used in this run has been written to 
 ml_dos.bib
 
Initialisation time =      8.93 s
Calculation time    =   2734.65 s
Finalisation time   =      2.46 s
Total time          =   2746.03 s
Peak Memory Use     = 3283340 kB
 
Overall parallel efficiency rating: Excellent (93%)
 
Data was distributed by:-
k-point (15-way); efficiency rating: Excellent (93%)
