 +-------------------------------------------------+
 |                                                 |
 |      CCC   AA    SSS  TTTTT  EEEEE  PPPP        |
 |     C     A  A  S       T    E      P   P       |
 |     C     AAAA   SS     T    EEE    PPPP        |
 |     C     A  A     S    T    E      P           |
 |      CCC  A  A  SSS     T    EEEEE  P           |
 |                                                 |
 +-------------------------------------------------+
 |                                                 |
 | Welcome to Academic Release CASTEP version 25.12|
 | Ab Initio Total Energy Program                  |
 |                                                 |
 | Authors:                                        |
 | M. Segall, M. Probert, C. Pickard, P. Hasnip,   |
 | S. Clark, K. Refson, J. R. Yates,               |
 | A. Bartok-Partay, M. Payne                      |
 |                                                 |
 | Contributors:                                   |
 | P. Lindan, P. Haynes, J. White, V. Milman,      |
 | N. Govind, M. Gibson, P. Tulip, V. Cocula,      |
 | B. Montanari, D. Quigley, M. Glover,            |
 | L. Bernasconi, A. Perlov, M. Plummer,           |
 | E. McNellis, J. Meyer, J. Gale, D. Jochym       |
 | J. Aarons, B. Walker, R. Gillen, D. Jones       |
 | T. Green, I. J. Bush, C. J. Armstrong,          |
 | E. J. Higgins, E. L. Brown, M. S. McFly,        |
 | J. Wilkins, B-C. Shih, P. J. P. Byrne,          |
 | R. J. Maurer, J. C. Womack, J. Dziedzic,        |
 | L. LeBlanc, T. K. Stenczel, J. Kermode,         |
 | S. Sturniolo, B. Shi, B. Durham, M. Evans,      |
 | M. J. Smith, A. Tamerus, Z. Hawkhead,           |
 | V. Ravindran, T. Hollins, S. A. Joyce,          |
 | R. T. Strong, A. M. Reilly, S. J. Donaldson,    |
 | J. C. A. Prentice                               |
 |                                                 |
 | Copyright (c) 2000 - 2024                       |
 |                                                 |
 |     Distributed under license from Cambridge    |
 |     Enterprise for academic use only.           |
 |                                                 |
 | Please cite                                     |
 |                                                 |
 |     "First principles methods using CASTEP"     |
 |                                                 |
 |         Zeitschrift fuer Kristallographie       |
 |           220(5-6) pp. 567-570 (2005)           |
 |                                                 |
 | S. J. Clark, M. D. Segall, C. J. Pickard,       |
 | P. J. Hasnip, M. J. Probert, K. Refson,         |
 | M. C. Payne                                     |
 |                                                 |
 |       in all publications arising from          |
 |              your use of CASTEP                 |
 |                                                 |
 +-------------------------------------------------+
 |                                                 |
 |              http://www.castep.org              |
 |                                                 |
 +-------------------------------------------------+



 Compiled for linux_x86_64_gfortran10 on Sun, 13 Jul 2025 14:49:40 -0400
 from code version git version unavailable
 Compiler: GNU Fortran 13.3.0; Optimisation: fast
 Comms   : Open MPI v5.0.3
 MATHLIBS: flexiblas (IMKL) (LAPACK version 3.12.0)
 FFT Lib : fftw3 version fftw-3.3.10-sse2-avx-avx2-avx2_128
 Fundamental constants values: CODATA 2018

 Run started: Thu, 30 Oct 2025 02:41:15 -0400

 Atomic calculation performed for Li: 1s2 2s1

 Converged in 47 iterations to an ae energy of -202.784 eV

   ============================================================                
   | Pseudopotential Report - Date of generation 30-10-2025   |                
   ------------------------------------------------------------                
   | Element: Li Ionic charge:  3.00 Level of theory: PBE     |                
   | Atomic Solver: Koelling-Harmon                           |                
   |                                                          |                
   |               Reference Electronic Structure             |                
   |         Orbital         Occupation         Energy        |                
   |            1s              2.000           -1.906        |                
   |            2s              1.000           -0.106        |                
   |                                                          |                
   |                 Pseudopotential Definition               |                
   |        Beta     l      e      Rc     scheme   norm       |                
   |          1      0   -1.906   1.001     qc      0         |                
   |          2      0   -0.106   1.001     qc      0         |                
   |          3      0    0.250   1.001     qc      0         |                
   |         loc     1    0.000   1.001     pn      0         |                
   |                                                          |                
   | Augmentation charge Rinner = 0.699                       |                
   | No partial core correction                               |                
   ------------------------------------------------------------                
   | "1|1.0|14|16|18|10U:20(qc=7)"                            |                
   ------------------------------------------------------------                
   |      Author: Chris J. Pickard, Cambridge University      |                
   ============================================================                

 Atomic calculation performed for O: 1s2 2s2 2p4

 Converged in 61 iterations to an ae energy of -2040.902 eV

   ============================================================                
   | Pseudopotential Report - Date of generation 30-10-2025   |                
   ------------------------------------------------------------                
   | Element: O Ionic charge:  6.00 Level of theory: PBE      |                
   | Atomic Solver: Koelling-Harmon                           |                
   |                                                          |                
   |               Reference Electronic Structure             |                
   |         Orbital         Occupation         Energy        |                
   |            2s              2.000           -0.881        |                
   |            2p              4.000           -0.332        |                
   |                                                          |                
   |                 Pseudopotential Definition               |                
   |        Beta     l      e      Rc     scheme   norm       |                
   |          1      0   -0.881   1.100     qc      0         |                
   |          2      0    0.250   1.100     qc      0         |                
   |          3      1   -0.332   1.100     qc      0         |                
   |          4      1    0.250   1.100     qc      0         |                
   |         loc     2    0.000   1.100     pn      0         |                
   |                                                          |                
   | Augmentation charge Rinner = 0.769                       |                
   | Partial core correction Rc = 0.769                       |                
   ------------------------------------------------------------                
   | "2|1.1|17|20|23|20:21(qc=8)"                             |                
   ------------------------------------------------------------                
   |      Author: Chris J. Pickard, Cambridge University      |                
   ============================================================                

 Atomic calculation performed for P: 1s2 2s2 2p6 3s2 3p3

 Converged in 56 iterations to an ae energy of -9303.626 eV

   ============================================================                
   | Pseudopotential Report - Date of generation 30-10-2025   |                
   ------------------------------------------------------------                
   | Element: P Ionic charge:  5.00 Level of theory: PBE      |                
   | Atomic Solver: Koelling-Harmon                           |                
   |                                                          |                
   |               Reference Electronic Structure             |                
   |         Orbital         Occupation         Energy        |                
   |            3s              2.000           -0.513        |                
   |            3p              3.000           -0.202        |                
   |                                                          |                
   |                 Pseudopotential Definition               |                
   |        Beta     l      e      Rc     scheme   norm       |                
   |          1      0   -0.513   1.807     qc      0         |                
   |          2      0    0.250   1.807     qc      0         |                
   |          3      1   -0.202   1.807     qc      0         |                
   |          4      1    0.250   1.807     qc      0         |                
   |          5      2    0.000   1.807     qc      0         |                
   |          6      2    0.250   1.807     qc      0         |                
   |         loc     3    0.000   1.807     pn      0         |                
   |                                                          |                
   | Augmentation charge Rinner = 1.263                       |                
   | Partial core correction Rc = 1.263                       |                
   ------------------------------------------------------------                
   | "3|1.8|4|4|5|30:31:32"                                   |                
   ------------------------------------------------------------                
   |      Author: Chris J. Pickard, Cambridge University      |                
   ============================================================                

 Atomic calculation performed for Ti: 1s2 2s2 2p6 3s2 3p6 3d2 4s2

 Converged in 79 iterations to an ae energy of -23226.658 eV

   ============================================================                
   | Pseudopotential Report - Date of generation 30-10-2025   |                
   ------------------------------------------------------------                
   | Element: Ti Ionic charge: 12.00 Level of theory: PBE     |                
   | Atomic Solver: Koelling-Harmon                           |                
   |                                                          |                
   |               Reference Electronic Structure             |                
   |         Orbital         Occupation         Energy        |                
   |            3s              2.000           -2.302        |                
   |            3p              6.000           -1.428        |                
   |            4s              2.000           -0.164        |                
   |            3d              2.000           -0.157        |                
   |                                                          |                
   |                 Pseudopotential Definition               |                
   |        Beta     l      e      Rc     scheme   norm       |                
   |          1      0   -2.302   1.793     qc      0         |                
   |          2      0   -0.164   1.793     qc      0         |                
   |          3      0    0.250   1.793     qc      0         |                
   |          4      1   -1.428   1.793     qc      0         |                
   |          5      1    0.250   1.793     qc      0         |                
   |          6      2   -0.157   1.793     qc      0         |                
   |          7      2    0.250   1.793     qc      0         |                
   |         loc     3    0.000   1.793     pn      0         |                
   |                                                          |                
   | Augmentation charge Rinner = 1.263                       |                
   | Partial core correction Rc = 1.263                       |                
   ------------------------------------------------------------                
   | "3|1.8|9|10|11|30U:40:31:32(qc=5.5)"                     |                
   ------------------------------------------------------------                
   |      Author: Chris J. Pickard, Cambridge University      |                
   ============================================================                

 Pseudo atomic calculation performed for Li 1s2 2s1

 Converged in 18 iterations to a total energy of -200.5098 eV

 Pseudo atomic calculation performed for O 2s2 2p4

 Converged in 24 iterations to a total energy of -432.3399 eV

 Pseudo atomic calculation performed for P 3s2 3p3

 Converged in 18 iterations to a total energy of -214.2237 eV

 Pseudo atomic calculation performed for Ti 3s2 3p6 3d2 4s2

 Converged in 34 iterations to a total energy of -1587.0351 eV
 Calculation parallelised over 12 processes.
 Data is distributed by G-vector(3-way) and k-point(4-way)

 ************************************ Title ************************************
 

 ***************************** General Parameters ******************************
  
 output verbosity                               : normal  (1)
 write checkpoint data to                       : ml_dos.check
 type of calculation                            : Electronic Spectroscopy
 stress calculation                             : off
 density difference calculation                 : off
 electron localisation func (ELF) calculation   : off
 Hirshfeld analysis                             : off
 polarisation (Berry phase) analysis            : off
 molecular orbital projected DOS                : off
 deltaSCF calculation                           : off
 unlimited duration calculation
 timing information                             : on
 memory usage estimate                          : on
 write extra output files                       : on
 write final potential to formatted file        : off
 write final density to formatted file          : off
 write BibTeX reference list                    : on
 write OTFG pseudopotential files               : on
 write electrostatic potential file             : on
 write bands file                               : on
 checkpoint writing                             : both castep_bin and check files
  
 output         length unit                     : A
 output           mass unit                     : amu
 output           time unit                     : ps
 output         charge unit                     : e
 output           spin unit                     : hbar/2
 output         energy unit                     : eV
 output          force unit                     : eV/A
 output       velocity unit                     : A/ps
 output       pressure unit                     : GPa
 output     inv_length unit                     : 1/A
 output      frequency unit                     : cm-1
 output force constant unit                     : eV/A**2
 output         volume unit                     : A**3
 output   IR intensity unit                     : (D/A)**2/amu
 output         dipole unit                     : D
 output         efield unit                     : eV/A/e
 output        entropy unit                     : J/mol/K
 output    efield chi2 unit                     : pm/V
  
 wavefunctions paging                           : none
 random number generator seed                   :   24115291
 data distribution                              : optimal for this architecture
 optimization strategy                          : balance speed and memory

 *********************** Exchange-Correlation Parameters ***********************
  
 using functional                               : Perdew Burke Ernzerhof
 relativistic treatment                         : Koelling-Harmon
 DFT+D: Semi-empirical dispersion correction    : off

 ************************* Pseudopotential Parameters **************************
  
 pseudopotential representation                 : reciprocal space
 <beta|phi> representation                      : reciprocal space
 spin-orbit coupling                            : off

 **************************** Basis Set Parameters *****************************
  
 plane wave basis set cut-off                   :   900.0000   eV
 size of standard grid                          :     2.0000
 size of   fine   gmax                          :    30.7390   1/A
 finite basis set correction                    : none

 **************************** Electronic Parameters ****************************
  
 number of  electrons                           :  228.0    
 net charge of system                           :  0.000    
 treating system as non-spin-polarized
 number of bands                                :        137

 ********************* Electronic Minimization Parameters **********************
  
 Method: Treating system as metallic with density mixing treatment of electrons,
         and number of  SD  steps               :          1
         and number of  CG  steps               :          4
  
 total energy / atom convergence tol.           : 0.1000E-05   eV
 eigen-energy convergence tolerance             : 0.3158E-06   eV
 max force / atom convergence tol.              : ignored
 convergence tolerance window                   :          3   cycles
 max. number of SCF cycles                      :        300
 number of fixed-spin iterations                :         10
 smearing scheme                                : Gaussian
 smearing width                                 : 0.2000       eV
 Fermi energy convergence tolerance             : 0.2721E-13   eV
 periodic dipole correction                     : NONE

 ************************** Density Mixing Parameters **************************
  
 density-mixing scheme                          : Pulay
 max. length of mixing history                  :         20
 charge density mixing amplitude                : 0.2000    
 cut-off energy for mixing                      :  900.0       eV

 *********************** Population Analysis Parameters ************************
  
 Population analysis with cutoff                :  3.000       A
 Population analysis output                     : summary and pdos components
 Partial DOS weights calculated

 ********************* Electronic Spectroscopy Parameters **********************
  
 electronic spectroscopy with theory level      : DFT       
 spectroscopy calculation                       : density of states
 max. number of iterations                      :         60
 max. steps per iteration                       :          5
 number of bands / k-point                      :        196
 band convergence tolerance                     : 0.1000E-05   eV
 write orbitals file                            : off

 *******************************************************************************
  

                           -------------------------------
                                      Unit Cell
                           -------------------------------
        Real Lattice(A)                      Reciprocal Lattice(1/A)
     8.5798490     0.0000000     0.0000000        0.732318868  -0.413385154  -0.293546804
     4.2176460     7.4716320     0.0000000        0.000000000   0.840938808  -0.293545338
     4.2176490     2.4624050     7.0542150        0.000000000   0.000000000   0.890699434

                       Lattice parameters(A)       Cell Angles
                    a =      8.579849          alpha =   60.555856
                    b =      8.579850          beta  =   60.555802
                    c =      8.579857          gamma =   60.555797

                       Current cell volume =           452.213799       A**3
                                   density =             1.714185   AMU/A**3
                                           =             2.846471     g/cm^3

                           -------------------------------
                                     Cell Contents
                           -------------------------------
                         Total number of ions in cell =   36
                      Total number of species in cell =    4
                        Max number of any one species =   24

            xxxxxxxxxxxxxxxxxxxxxxxxxxxxxxxxxxxxxxxxxxxxxxxxxxxxxxxxxxxx
            x  Element    Atom        Fractional coordinates of atoms  x
            x            Number           u          v          w      x
            x----------------------------------------------------------x
            x  Li           1         0.500004   0.500016   0.499975   x 
            x  Li           2         0.999993   0.000015   0.999990   x 
            x  O            1         0.496621   0.124749   0.308690   x 
            x  O            2         0.124756   0.308677   0.496629   x 
            x  O            3         0.308671   0.496632   0.124760   x 
            x  O            4         0.996623   0.808684   0.624750   x 
            x  O            5         0.808681   0.624753   0.996630   x 
            x  O            6         0.624754   0.996625   0.808680   x 
            x  O            7         0.503373   0.875244   0.691323   x 
            x  O            8         0.875245   0.691323   0.503369   x 
            x  O            9         0.691325   0.503373   0.875248   x 
            x  O           10         0.003375   0.191323   0.375247   x 
            x  O           11         0.191320   0.375250   0.003372   x 
            x  O           12         0.375245   0.003375   0.191320   x 
            x  O           13         0.444621   0.231013   0.586246   x 
            x  O           14         0.231024   0.586241   0.444612   x 
            x  O           15         0.586240   0.444614   0.231019   x 
            x  O           16         0.944617   0.086244   0.731019   x 
            x  O           17         0.086242   0.731016   0.944619   x 
            x  O           18         0.731019   0.944615   0.086241   x 
            x  O           19         0.555383   0.768979   0.413753   x 
            x  O           20         0.768979   0.413762   0.555384   x 
            x  O           21         0.413764   0.555387   0.768977   x 
            x  O           22         0.055383   0.913761   0.268987   x 
            x  O           23         0.913761   0.268976   0.055387   x 
            x  O           24         0.268973   0.055384   0.913764   x 
            x  P            1         0.539877   0.960123   0.249999   x 
            x  P            2         0.960122   0.250000   0.539878   x 
            x  P            3         0.250004   0.539876   0.960122   x 
            x  P            4         0.039878   0.749997   0.460124   x 
            x  P            5         0.750003   0.460120   0.039880   x 
            x  P            6         0.460120   0.039872   0.750006   x 
            x  Ti           1         0.359333   0.359333   0.359340   x 
            x  Ti           2         0.859335   0.859334   0.859335   x 
            x  Ti           3         0.640671   0.640656   0.640660   x 
            x  Ti           4         0.140665   0.140659   0.140667   x 
            xxxxxxxxxxxxxxxxxxxxxxxxxxxxxxxxxxxxxxxxxxxxxxxxxxxxxxxxxxxx


                         No user defined ionic velocities

                           -------------------------------
                                   Details of Species
                           -------------------------------

                               Mass of species in AMU
                                    Li    6.9410000
                                    O   15.9994000
                                    P   30.9737600
                                    Ti   47.8670000

                          Electric Quadrupole Moment (Barn)
                                    Li   -0.0401000 Isotope   7
                                    O   -0.0255800 Isotope  17
                                    P    1.0000000 No Isotope Defined
                                    Ti    0.3020000 Isotope  47

                          Files used for pseudopotentials:
                                    Li 1|1.0|14|16|18|10U:20(qc=7)
                                    O 2|1.1|17|20|23|20:21(qc=8)
                                    P 3|1.8|4|4|5|30:31:32
                                    Ti 3|1.8|9|10|11|30U:40:31:32(qc=5.5)

                           -------------------------------
                              k-Points For BZ Sampling
                           -------------------------------
                       MP grid size for SCF calculation is  4  4  4
                            with an offset of   0.000  0.000  0.000
                       Number of kpoints used =            32

                           -------------------------------
                               Symmetry and Constraints
                           -------------------------------

                      Maximum deviation from symmetry =  0.00000         ANG

                      Number of symmetry operations   =           1
                      Number of ionic constraints     =           3
                      Point group of crystal =     1: C1, 1, 1
                      Space group of crystal =   167: R-3c, -R 3 2"c

             Set iprint > 1 for details on symmetry rotations/translations

                         Centre of mass is constrained
             Set iprint > 2 for details of linear ionic constraints

                         Number of cell constraints= 0
                         Cell constraints are:  1 2 3 4 5 6

                         External pressure/stress (GPa)
                          0.00000   0.00000   0.00000
                                    0.00000   0.00000
                                              0.00000
 
+---------------- MEMORY AND SCRATCH DISK ESTIMATES PER PROCESS --------------+
|                                                     Memory          Disk    |
| Baseline code, static data and system overhead      804.0 MB         0.0 MB |
| BLAS internal memory storage                          0.0 MB         0.0 MB |
| Model and support data                             1372.4 MB         0.0 MB |
| Electronic energy minimisation requirements         417.7 MB         0.0 MB |
| Force calculation requirements                       35.2 MB         0.0 MB |
|                                               ----------------------------- |
| Approx. total storage required per process         2594.1 MB         0.0 MB |
|                                                                             |
| Requirements will fluctuate during execution and may exceed these estimates |
+-----------------------------------------------------------------------------+
Calculating approximate eigenstates for fixed initial Hamiltonian
Cut-off for approx. calculation is   98.987 eV
Improving approx. states at cut-off of  450.000 eV
Resetting cut-off to  900.000 eV
Calculating total energy with cut-off of  900.000 eV.
------------------------------------------------------------------------ <-- SCF
SCF loop      Energy           Fermi           Energy gain       Timer   <-- SCF
                               energy          per atom          (sec)   <-- SCF
------------------------------------------------------------------------ <-- SCF
Initial  -1.83030507E+004  0.00000000E+000                       106.33  <-- SCF
      1  -1.87082003E+004  3.76106814E+000   1.12541570E+001     234.24  <-- SCF
      2  -1.87092812E+004  3.75224845E+000   3.00227731E-002     345.29  <-- SCF
      3  -1.86921996E+004  2.96891089E+000  -4.74487025E-001     427.09  <-- SCF
      4  -1.86870727E+004  2.42084690E+000  -1.42415890E-001     554.93  <-- SCF
      5  -1.86869895E+004  3.04686683E+000  -2.30965373E-003     679.55  <-- SCF
      6  -1.86872606E+004  3.63614062E+000   7.52955019E-003     752.43  <-- SCF
      7  -1.86868153E+004  3.37639743E+000  -1.23683554E-002     826.68  <-- SCF
      8  -1.86867438E+004  3.11286287E+000  -1.98639226E-003     907.75  <-- SCF
      9  -1.86867527E+004  3.12690616E+000   2.47181455E-004     992.75  <-- SCF
     10  -1.86867591E+004  3.13246312E+000   1.78178676E-004    1069.37  <-- SCF
     11  -1.86867588E+004  3.15790515E+000  -9.75073736E-006    1145.92  <-- SCF
     12  -1.86867583E+004  3.17701818E+000  -1.24686693E-005    1206.72  <-- SCF
     13  -1.86867584E+004  3.17261442E+000   3.03042787E-006    1267.85  <-- SCF
     14  -1.86867583E+004  3.17439070E+000  -2.36073302E-006    1314.78  <-- SCF
     15  -1.86867584E+004  3.17557630E+000   4.44082899E-007    1361.19  <-- SCF
     16  -1.86867584E+004  3.17543673E+000   7.62481006E-007    1407.34  <-- SCF
     17  -1.86867584E+004  3.17524778E+000  -2.18341360E-007    1452.66  <-- SCF
------------------------------------------------------------------------ <-- SCF
 
Final energy, E             =  -18686.75838009     eV
Final free energy (E-TS)    =  -18686.75838009     eV
(energies not corrected for finite basis set)
 
NB est. 0K energy (E-0.5TS)      =  -18686.75838009     eV
 

Writing analysis data to ml_dos.castep_bin

Writing model to ml_dos.check
 
+---------------- MEMORY AND SCRATCH DISK ESTIMATES PER PROCESS --------------+
|                                                     Memory          Disk    |
|                                               ----------------------------- |
| Approx. total storage required per process         1360.0 MB         0.0 MB |
|                                                                             |
| Requirements will fluctuate during execution and may exceed these estimates |
+-----------------------------------------------------------------------------+
 
  =====================================================================
  +                                                                   +
  +                 Calculation of Spectral Properties                +
  +                                                                   +
  + Calculation re-parallelised over 12 processes.                    +
  + There are 32 k-points distributed across 4 k-point groups.        +
  + Data distributed by G-vector(3-way), k-point(4-way), band(1-way)  +
  + Data distributed by G-vector(3-way), k-point(4-way)               +
  +                                                                   +
  =====================================================================

 Pseudo atomic calculation performed for Li 1s2 2s1

 Converged in 18 iterations to a total energy of -200.5098 eV

 Pseudo atomic calculation performed for O 2s2 2p4

 Converged in 24 iterations to a total energy of -432.3399 eV

 Pseudo atomic calculation performed for P 3s2 3p3

 Converged in 18 iterations to a total energy of -214.2237 eV

 Pseudo atomic calculation performed for Ti 3s2 3p6 3d2 4s2

 Converged in 34 iterations to a total energy of -1587.0351 eV
  Starting k-point:        1 of        8 Time:      0.00 sec  |<-- SPEC

 Pseudo atomic calculation performed for Li 1s2 2s1

 Converged in 18 iterations to a total energy of -200.5098 eV

 Pseudo atomic calculation performed for O 2s2 2p4

 Converged in 24 iterations to a total energy of -432.3399 eV

 Pseudo atomic calculation performed for P 3s2 3p3

 Converged in 18 iterations to a total energy of -214.2237 eV

 Pseudo atomic calculation performed for Ti 3s2 3p6 3d2 4s2

 Converged in 34 iterations to a total energy of -1587.0351 eV
  Starting k-point:        2 of        8 Time:    145.88 sec  |<-- SPEC

 Pseudo atomic calculation performed for Li 1s2 2s1

 Converged in 18 iterations to a total energy of -200.5098 eV

 Pseudo atomic calculation performed for O 2s2 2p4

 Converged in 24 iterations to a total energy of -432.3399 eV

 Pseudo atomic calculation performed for P 3s2 3p3

 Converged in 18 iterations to a total energy of -214.2237 eV

 Pseudo atomic calculation performed for Ti 3s2 3p6 3d2 4s2

 Converged in 34 iterations to a total energy of -1587.0351 eV
  Starting k-point:        3 of        8 Time:    289.16 sec  |<-- SPEC

 Pseudo atomic calculation performed for Li 1s2 2s1

 Converged in 18 iterations to a total energy of -200.5098 eV

 Pseudo atomic calculation performed for O 2s2 2p4

 Converged in 24 iterations to a total energy of -432.3399 eV

 Pseudo atomic calculation performed for P 3s2 3p3

 Converged in 18 iterations to a total energy of -214.2237 eV

 Pseudo atomic calculation performed for Ti 3s2 3p6 3d2 4s2

 Converged in 34 iterations to a total energy of -1587.0351 eV
  Starting k-point:        4 of        8 Time:    433.91 sec  |<-- SPEC

 Pseudo atomic calculation performed for Li 1s2 2s1

 Converged in 18 iterations to a total energy of -200.5098 eV

 Pseudo atomic calculation performed for O 2s2 2p4

 Converged in 24 iterations to a total energy of -432.3399 eV

 Pseudo atomic calculation performed for P 3s2 3p3

 Converged in 18 iterations to a total energy of -214.2237 eV

 Pseudo atomic calculation performed for Ti 3s2 3p6 3d2 4s2

 Converged in 34 iterations to a total energy of -1587.0351 eV
  Starting k-point:        5 of        8 Time:    579.25 sec  |<-- SPEC

 Pseudo atomic calculation performed for Li 1s2 2s1

 Converged in 18 iterations to a total energy of -200.5098 eV

 Pseudo atomic calculation performed for O 2s2 2p4

 Converged in 24 iterations to a total energy of -432.3399 eV

 Pseudo atomic calculation performed for P 3s2 3p3

 Converged in 18 iterations to a total energy of -214.2237 eV

 Pseudo atomic calculation performed for Ti 3s2 3p6 3d2 4s2

 Converged in 34 iterations to a total energy of -1587.0351 eV
  Starting k-point:        6 of        8 Time:    727.20 sec  |<-- SPEC

 Pseudo atomic calculation performed for Li 1s2 2s1

 Converged in 18 iterations to a total energy of -200.5098 eV

 Pseudo atomic calculation performed for O 2s2 2p4

 Converged in 24 iterations to a total energy of -432.3399 eV

 Pseudo atomic calculation performed for P 3s2 3p3

 Converged in 18 iterations to a total energy of -214.2237 eV

 Pseudo atomic calculation performed for Ti 3s2 3p6 3d2 4s2

 Converged in 34 iterations to a total energy of -1587.0351 eV
  Starting k-point:        7 of        8 Time:    874.42 sec  |<-- SPEC

 Pseudo atomic calculation performed for Li 1s2 2s1

 Converged in 18 iterations to a total energy of -200.5098 eV

 Pseudo atomic calculation performed for O 2s2 2p4

 Converged in 24 iterations to a total energy of -432.3399 eV

 Pseudo atomic calculation performed for P 3s2 3p3

 Converged in 18 iterations to a total energy of -214.2237 eV

 Pseudo atomic calculation performed for Ti 3s2 3p6 3d2 4s2

 Converged in 34 iterations to a total energy of -1587.0351 eV
  Starting k-point:        8 of        8 Time:   1019.31 sec  |<-- SPEC

 Pseudo atomic calculation performed for Li 1s2 2s1

 Converged in 18 iterations to a total energy of -200.5098 eV

 Pseudo atomic calculation performed for O 2s2 2p4

 Converged in 24 iterations to a total energy of -432.3399 eV

 Pseudo atomic calculation performed for P 3s2 3p3

 Converged in 18 iterations to a total energy of -214.2237 eV

 Pseudo atomic calculation performed for Ti 3s2 3p6 3d2 4s2

 Converged in 34 iterations to a total energy of -1587.0351 eV
  Check-pointing spectral run                                 |<-- SPEC
  Total time to compute matrix elements           1164.70 sec |<-- SPEC
  
  + Calculation re-parallelised over 12 processes.                    +
  + Data distributed by G-vector(3-way), k-point(4-way)               +

 ************************** Forces **************************
 *                                                          *
 *               Cartesian components (eV/A)                *
 * -------------------------------------------------------- *
 *                         x            y            z      *
 *                                                          *
 * Li              1     -0.00006     -0.00001      0.00001 *
 * Li              2      0.00000     -0.00007     -0.00004 *
 * O               1      0.06601      0.14817      0.07816 *
 * O               2      0.16133      0.06945     -0.04042 *
 * O               3      0.14007     -0.00359      0.11405 *
 * O               4      0.06632      0.12313      0.11502 *
 * O               5      0.13967      0.10663     -0.04048 *
 * O               6      0.16203     -0.01568      0.07926 *
 * O               7     -0.06623     -0.14919     -0.07865 *
 * O               8     -0.16146     -0.06947      0.04058 *
 * O               9     -0.14016      0.00296     -0.11506 *
 * O              10     -0.06638     -0.12341     -0.11464 *
 * O              11     -0.14001     -0.10783      0.04079 *
 * O              12     -0.16190      0.01557     -0.07888 *
 * O              13     -0.09295      0.11281     -0.25662 *
 * O              14      0.05211     -0.28618     -0.04332 *
 * O              15     -0.22344      0.02028      0.19062 *
 * O              16     -0.09270     -0.20516      0.19104 *
 * O              17     -0.22422      0.18705     -0.04425 *
 * O              18      0.05255     -0.13541     -0.25636 *
 * O              19      0.09269     -0.11268      0.25689 *
 * O              20     -0.05214      0.28611      0.04359 *
 * O              21      0.22359     -0.02023     -0.18964 *
 * O              22      0.09235      0.20481     -0.19096 *
 * O              23      0.22375     -0.18619      0.04368 *
 * O              24     -0.05185      0.13530      0.25570 *
 * P               1     -0.01141      0.01981      0.00026 *
 * P               2      0.01212     -0.00630     -0.01868 *
 * P               3     -0.00015     -0.01273      0.01866 *
 * P               4     -0.01145      0.00659      0.01815 *
 * P               5     -0.00025      0.01330     -0.01870 *
 * P               6      0.01132     -0.01947     -0.00054 *
 * Ti              1     -0.06199     -0.03653     -0.02576 *
 * Ti              2     -0.06199     -0.03630     -0.02559 *
 * Ti              3      0.06221      0.03762      0.02652 *
 * Ti              4      0.06262      0.03687      0.02560 *
 *                                                          *
 ************************************************************

 Pseudo atomic calculation performed for Li 1s2 2s1

 Converged in 18 iterations to a total energy of -200.5098 eV

 Pseudo atomic calculation performed for O 2s2 2p4

 Converged in 24 iterations to a total energy of -432.3399 eV

 Pseudo atomic calculation performed for P 3s2 3p3

 Converged in 18 iterations to a total energy of -214.2237 eV

 Pseudo atomic calculation performed for Ti 3s2 3p6 3d2 4s2

 Converged in 34 iterations to a total energy of -1587.0351 eV
Charge spilling parameter for spin component 1 = 0.90%

            Orbital Populations       
     Ion    Atom   Orbital             Charge
  -------------------------------------------
     Li     1      S                    2.000
     Li     1      S                   -0.026
     Li     1      Px                   0.032
     Li     1      Py                   0.035
     Li     1      Pz                   0.036
     Li     2      S                    2.000
     Li     2      S                   -0.026
     Li     2      Px                   0.032
     Li     2      Py                   0.035
     Li     2      Pz                   0.036
      O     1      S                    1.826
      O     1      Px                   1.752
      O     1      Py                   1.542
      O     1      Pz                   1.759
      O     2      S                    1.826
      O     2      Px                   1.537
      O     2      Py                   1.769
      O     2      Pz                   1.747
      O     3      S                    1.826
      O     3      Px                   1.681
      O     3      Py                   1.769
      O     3      Pz                   1.603
      O     4      S                    1.826
      O     4      Px                   1.752
      O     4      Py                   1.698
      O     4      Pz                   1.603
      O     5      S                    1.826
      O     5      Px                   1.681
      O     5      Py                   1.625
      O     5      Pz                   1.747
      O     6      S                    1.826
      O     6      Px                   1.537
      O     6      Py                   1.758
      O     6      Pz                   1.759
      O     7      S                    1.826
      O     7      Px                   1.752
      O     7      Py                   1.543
      O     7      Pz                   1.759
      O     8      S                    1.827
      O     8      Px                   1.537
      O     8      Py                   1.769
      O     8      Pz                   1.748
      O     9      S                    1.826
      O     9      Px                   1.681
      O     9      Py                   1.769
      O     9      Pz                   1.603
      O    10      S                    1.827
      O    10      Px                   1.752
      O    10      Py                   1.698
      O    10      Pz                   1.603
      O    11      S                    1.826
      O    11      Px                   1.681
      O    11      Py                   1.625
      O    11      Pz                   1.747
      O    12      S                    1.826
      O    12      Px                   1.537
      O    12      Py                   1.758
      O    12      Pz                   1.759
      O    13      S                    1.844
      O    13      Px                   1.769
      O    13      Py                   1.691
      O    13      Pz                   1.619
      O    14      S                    1.844
      O    14      Px                   1.713
      O    14      Py                   1.572
      O    14      Pz                   1.794
      O    15      S                    1.844
      O    15      Px                   1.688
      O    15      Py                   1.785
      O    15      Pz                   1.605
      O    16      S                    1.844
      O    16      Px                   1.769
      O    16      Py                   1.705
      O    16      Pz                   1.605
      O    17      S                    1.844
      O    17      Px                   1.689
      O    17      Py                   1.597
      O    17      Pz                   1.794
      O    18      S                    1.844
      O    18      Px                   1.713
      O    18      Py                   1.747
      O    18      Pz                   1.619
      O    19      S                    1.844
      O    19      Px                   1.769
      O    19      Py                   1.691
      O    19      Pz                   1.619
      O    20      S                    1.844
      O    20      Px                   1.713
      O    20      Py                   1.572
      O    20      Pz                   1.794
      O    21      S                    1.844
      O    21      Px                   1.688
      O    21      Py                   1.786
      O    21      Pz                   1.605
      O    22      S                    1.844
      O    22      Px                   1.769
      O    22      Py                   1.705
      O    22      Pz                   1.605
      O    23      S                    1.844
      O    23      Px                   1.688
      O    23      Py                   1.597
      O    23      Pz                   1.794
      O    24      S                    1.844
      O    24      Px                   1.713
      O    24      Py                   1.747
      O    24      Pz                   1.619
      P     1      S                    0.894
      P     1      Px                   0.600
      P     1      Py                   0.614
      P     1      Pz                   0.618
      P     2      S                    0.894
      P     2      Px                   0.600
      P     2      Py                   0.619
      P     2      Pz                   0.613
      P     3      S                    0.894
      P     3      Px                   0.615
      P     3      Py                   0.604
      P     3      Pz                   0.613
      P     4      S                    0.894
      P     4      Px                   0.600
      P     4      Py                   0.619
      P     4      Pz                   0.613
      P     5      S                    0.894
      P     5      Px                   0.615
      P     5      Py                   0.604
      P     5      Pz                   0.613
      P     6      S                    0.894
      P     6      Px                   0.600
      P     6      Py                   0.614
      P     6      Pz                   0.618
     Ti     1      S                    1.992
     Ti     1      Px                   1.991
     Ti     1      Py                   1.992
     Ti     1      Pz                   1.992
     Ti     1      S                    0.220
     Ti     1      Dzz                  0.409
     Ti     1      Dzy                  0.387
     Ti     1      Dzx                  0.451
     Ti     1      Dxx-yy               0.464
     Ti     1      Dxy                  0.352
     Ti     1      Px                   0.080
     Ti     1      Py                   0.069
     Ti     1      Pz                   0.066
     Ti     2      S                    1.992
     Ti     2      Px                   1.991
     Ti     2      Py                   1.992
     Ti     2      Pz                   1.992
     Ti     2      S                    0.220
     Ti     2      Dzz                  0.409
     Ti     2      Dzy                  0.452
     Ti     2      Dzx                  0.386
     Ti     2      Dxx-yy               0.398
     Ti     2      Dxy                  0.417
     Ti     2      Px                   0.080
     Ti     2      Py                   0.069
     Ti     2      Pz                   0.066
     Ti     3      S                    1.992
     Ti     3      Px                   1.991
     Ti     3      Py                   1.992
     Ti     3      Pz                   1.992
     Ti     3      S                    0.220
     Ti     3      Dzz                  0.409
     Ti     3      Dzy                  0.387
     Ti     3      Dzx                  0.451
     Ti     3      Dxx-yy               0.464
     Ti     3      Dxy                  0.352
     Ti     3      Px                   0.080
     Ti     3      Py                   0.069
     Ti     3      Pz                   0.066
     Ti     4      S                    1.992
     Ti     4      Px                   1.991
     Ti     4      Py                   1.992
     Ti     4      Pz                   1.992
     Ti     4      S                    0.220
     Ti     4      Dzz                  0.409
     Ti     4      Dzy                  0.452
     Ti     4      Dzx                  0.386
     Ti     4      Dxx-yy               0.398
     Ti     4      Dxy                  0.417
     Ti     4      Px                   0.080
     Ti     4      Py                   0.069
     Ti     4      Pz                   0.066
  -------------------------------------------
                           Total:     227.996
  -------------------------------------------

     Atomic Populations (Mulliken)
     -----------------------------
Species          Ion     s       p       d       f      Total   Charge (e)
==========================================================================
  Li              1     1.973   0.102   0.000   0.000   2.076     0.924
  Li              2     1.973   0.102   0.000   0.000   2.076     0.924
  O               1     1.826   5.053   0.000   0.000   6.880    -0.880
  O               2     1.826   5.053   0.000   0.000   6.880    -0.880
  O               3     1.826   5.054   0.000   0.000   6.880    -0.880
  O               4     1.826   5.053   0.000   0.000   6.880    -0.880
  O               5     1.826   5.054   0.000   0.000   6.880    -0.880
  O               6     1.826   5.053   0.000   0.000   6.880    -0.880
  O               7     1.826   5.054   0.000   0.000   6.880    -0.880
  O               8     1.827   5.053   0.000   0.000   6.880    -0.880
  O               9     1.826   5.054   0.000   0.000   6.880    -0.880
  O              10     1.827   5.053   0.000   0.000   6.880    -0.880
  O              11     1.826   5.053   0.000   0.000   6.880    -0.880
  O              12     1.826   5.054   0.000   0.000   6.880    -0.880
  O              13     1.844   5.079   0.000   0.000   6.923    -0.923
  O              14     1.844   5.079   0.000   0.000   6.923    -0.923
  O              15     1.844   5.079   0.000   0.000   6.923    -0.923
  O              16     1.844   5.079   0.000   0.000   6.923    -0.923
  O              17     1.844   5.079   0.000   0.000   6.923    -0.923
  O              18     1.844   5.079   0.000   0.000   6.923    -0.923
  O              19     1.844   5.079   0.000   0.000   6.923    -0.923
  O              20     1.844   5.079   0.000   0.000   6.923    -0.923
  O              21     1.844   5.079   0.000   0.000   6.923    -0.923
  O              22     1.844   5.079   0.000   0.000   6.923    -0.923
  O              23     1.844   5.079   0.000   0.000   6.923    -0.923
  O              24     1.844   5.079   0.000   0.000   6.923    -0.923
  P               1     0.894   1.832   0.000   0.000   2.725     2.275
  P               2     0.894   1.832   0.000   0.000   2.725     2.275
  P               3     0.894   1.832   0.000   0.000   2.725     2.275
  P               4     0.894   1.832   0.000   0.000   2.725     2.275
  P               5     0.894   1.832   0.000   0.000   2.725     2.275
  P               6     0.894   1.832   0.000   0.000   2.725     2.275
  Ti              1     2.212   6.190   2.063   0.000  10.465     1.535
  Ti              2     2.212   6.190   2.063   0.000  10.465     1.535
  Ti              3     2.212   6.190   2.063   0.000  10.465     1.535
  Ti              4     2.212   6.190   2.063   0.000  10.465     1.535
==========================================================================

                 Bond                   Population      Length (A)
======================================================================
              O 16 -- P 2                    0.64        1.54439
              O 19 -- P 1                    0.64        1.54440
              O 22 -- P 4                    0.64        1.54440
              O 18 -- P 1                    0.64        1.54440
              O 13 -- P 6                    0.64        1.54441
              O 17 -- P 3                    0.65        1.54441
              O 15 -- P 5                    0.64        1.54441
              O 23 -- P 5                    0.64        1.54441
              O 14 -- P 4                    0.64        1.54442
              O 20 -- P 2                    0.64        1.54442
              O 21 -- P 3                    0.64        1.54443
              O 24 -- P 6                    0.64        1.54443
              O 10 -- P 2                    0.64        1.54481
              O 11 -- P 3                    0.64        1.54482
              O 7  -- P 6                    0.64        1.54482
              O 4  -- P 4                    0.64        1.54482
              O 9  -- P 5                    0.64        1.54483
              O 12 -- P 1                    0.64        1.54484
              O 8  -- P 4                    0.64        1.54484
              O 6  -- P 6                    0.64        1.54484
              O 1  -- P 1                    0.64        1.54484
              O 3  -- P 3                    0.64        1.54484
              O 5  -- P 5                    0.64        1.54484
              O 2  -- P 2                    0.64        1.54485
              O 2  -- Ti 1                   0.42        1.91128
              O 12 -- Ti 4                   0.42        1.91129
              O 8  -- Ti 3                   0.42        1.91130
              O 5  -- Ti 2                   0.42        1.91130
              O 6  -- Ti 2                   0.42        1.91130
              O 1  -- Ti 1                   0.42        1.91131
              O 4  -- Ti 2                   0.42        1.91132
              O 3  -- Ti 1                   0.42        1.91132
              O 10 -- Ti 4                   0.42        1.91133
              O 9  -- Ti 3                   0.42        1.91136
              O 11 -- Ti 4                   0.42        1.91138
              O 7  -- Ti 3                   0.42        1.91138
              O 20 -- Ti 3                   0.33        2.00958
              O 22 -- Ti 4                   0.33        2.00963
              O 21 -- Ti 3                   0.33        2.00963
              O 24 -- Ti 4                   0.33        2.00964
              O 14 -- Ti 1                   0.33        2.00966
              O 23 -- Ti 4                   0.33        2.00967
              O 18 -- Ti 2                   0.33        2.00969
              O 15 -- Ti 1                   0.33        2.00969
              O 17 -- Ti 2                   0.33        2.00971
              O 13 -- Ti 1                   0.33        2.00972
              O 16 -- Ti 2                   0.33        2.00972
              O 19 -- Ti 3                   0.33        2.00972
              Li 1 -- O 19                   0.04        2.26988
              Li 1 -- O 15                   0.04        2.26990
              Li 2 -- O 16                   0.04        2.26992
              Li 2 -- O 23                   0.04        2.26993
              Li 1 -- O 14                   0.04        2.26994
              Li 2 -- O 24                   0.04        2.26997
              Li 2 -- O 18                   0.04        2.27000
              Li 1 -- O 20                   0.04        2.27005
              Li 2 -- O 17                   0.04        2.27008
              Li 1 -- O 13                   0.04        2.27012
              Li 1 -- O 21                   0.04        2.27013
              Li 2 -- O 22                   0.04        2.27014
              O 6  -- O 13                  -0.13        2.47909
              O 3  -- O 17                  -0.13        2.47910
              O 2  -- O 16                  -0.13        2.47912
              O 12 -- O 19                  -0.13        2.47912
              O 8  -- O 22                  -0.13        2.47913
              O 9  -- O 23                  -0.13        2.47914
              O 10 -- O 20                  -0.13        2.47915
              O 5  -- O 15                  -0.13        2.47916
              O 11 -- O 21                  -0.13        2.47918
              O 7  -- O 24                  -0.13        2.47918
              O 4  -- O 14                  -0.13        2.47918
              O 1  -- O 18                  -0.13        2.47919
              O 2  -- O 10                  -0.12        2.51220
              O 5  -- O 9                   -0.12        2.51221
              O 6  -- O 7                   -0.12        2.51222
              O 1  -- O 12                  -0.12        2.51222
              O 4  -- O 8                   -0.12        2.51222
              O 3  -- O 11                  -0.12        2.51223
              O 18 -- O 19                  -0.13        2.51875
              O 14 -- O 22                  -0.13        2.51877
              O 16 -- O 20                  -0.13        2.51878
              O 15 -- O 23                  -0.13        2.51879
              O 17 -- O 21                  -0.13        2.51879
              O 13 -- O 24                  -0.13        2.51880
              O 4  -- O 22                  -0.11        2.57148
              O 11 -- O 17                  -0.11        2.57151
              O 9  -- O 15                  -0.11        2.57153
              O 7  -- O 13                  -0.11        2.57153
              O 1  -- O 19                  -0.11        2.57154
              O 10 -- O 16                  -0.11        2.57155
              O 12 -- O 18                  -0.11        2.57156
              O 2  -- O 20                  -0.11        2.57158
              O 5  -- O 23                  -0.11        2.57158
              O 8  -- O 14                  -0.11        2.57160
              O 6  -- O 24                  -0.11        2.57161
              O 3  -- O 21                  -0.11        2.57162
              O 23 -- O 24                  -0.04        2.67965
              O 20 -- O 21                  -0.04        2.67967
              O 14 -- O 15                  -0.04        2.67968
              O 22 -- O 23                  -0.04        2.67969
              O 22 -- O 24                  -0.04        2.67970
              O 19 -- O 20                  -0.04        2.67971
              O 19 -- O 21                  -0.04        2.67971
              O 17 -- O 18                  -0.04        2.67973
              O 16 -- O 18                  -0.04        2.67973
              O 13 -- O 15                  -0.04        2.67975
              O 16 -- O 17                  -0.04        2.67976
              O 13 -- O 14                  -0.04        2.67977
              O 5  -- O 17                  -0.03        2.71871
              O 10 -- O 22                  -0.03        2.71872
              O 8  -- O 20                  -0.03        2.71872
              O 1  -- O 13                  -0.03        2.71872
              O 3  -- O 15                  -0.03        2.71873
              O 6  -- O 18                  -0.03        2.71873
              O 12 -- O 24                  -0.03        2.71874
              O 2  -- O 14                  -0.03        2.71875
              O 11 -- O 23                  -0.03        2.71875
              O 9  -- O 21                  -0.03        2.71875
              O 4  -- O 16                  -0.03        2.71876
              O 7  -- O 19                  -0.03        2.71881
              O 1  -- O 2                   -0.03        2.78633
              O 4  -- O 6                   -0.03        2.78636
              O 2  -- O 3                   -0.03        2.78636
              O 10 -- O 12                  -0.03        2.78638
              O 7  -- O 8                   -0.03        2.78639
              O 7  -- O 9                   -0.03        2.78639
              O 5  -- O 6                   -0.03        2.78639
              O 10 -- O 11                  -0.03        2.78640
              O 11 -- O 12                  -0.03        2.78640
              O 8  -- O 9                   -0.03        2.78641
              O 4  -- O 5                   -0.03        2.78643
              O 1  -- O 3                   -0.03        2.78646
              O 3  -- O 14                  -0.02        2.88779
              O 7  -- O 21                  -0.02        2.88781
              O 5  -- O 18                  -0.02        2.88784
              O 12 -- O 22                  -0.02        2.88784
              O 10 -- O 23                  -0.02        2.88787
              O 1  -- O 15                  -0.02        2.88788
              O 9  -- O 20                  -0.02        2.88788
              O 11 -- O 24                  -0.02        2.88788
              O 8  -- O 19                  -0.02        2.88789
              O 2  -- O 13                  -0.02        2.88789
              O 6  -- O 16                  -0.02        2.88789
              O 4  -- O 17                  -0.02        2.88792
              O 1  -- O 7                   -0.01        2.91879
              O 5  -- O 11                  -0.01        2.91880
              O 4  -- O 10                  -0.01        2.91882
              O 6  -- O 12                  -0.01        2.91884
              O 2  -- O 8                   -0.01        2.91886
              O 3  -- O 9                   -0.01        2.91892
              Li 1 -- Ti 1                  -0.21        2.94373
              Li 1 -- Ti 3                  -0.21        2.94375
              Li 2 -- Ti 4                  -0.21        2.94376
              Li 2 -- Ti 2                  -0.21        2.94377
======================================================================


Writing analysis data to ml_dos.castep_bin

Writing model to ml_dos.check
 
 A BibTeX formatted list of references used in this run has been written to 
 ml_dos.bib
 
Initialisation time =     21.50 s
Calculation time    =   2664.91 s
Finalisation time   =      3.75 s
Total time          =   2690.15 s
Peak Memory Use     = 3064344 kB
 
Overall parallel efficiency rating: Terrible (32%)
 
Data was distributed by:-
G-vector (3-way); efficiency rating: Terrible (32%)
k-point (4-way); efficiency rating: Excellent (98%)
