 +-------------------------------------------------+
 |                                                 |
 |      CCC   AA    SSS  TTTTT  EEEEE  PPPP        |
 |     C     A  A  S       T    E      P   P       |
 |     C     AAAA   SS     T    EEE    PPPP        |
 |     C     A  A     S    T    E      P           |
 |      CCC  A  A  SSS     T    EEEEE  P           |
 |                                                 |
 +-------------------------------------------------+
 |                                                 |
 | Welcome to Academic Release CASTEP version 25.12|
 | Ab Initio Total Energy Program                  |
 |                                                 |
 | Authors:                                        |
 | M. Segall, M. Probert, C. Pickard, P. Hasnip,   |
 | S. Clark, K. Refson, J. R. Yates,               |
 | A. Bartok-Partay, M. Payne                      |
 |                                                 |
 | Contributors:                                   |
 | P. Lindan, P. Haynes, J. White, V. Milman,      |
 | N. Govind, M. Gibson, P. Tulip, V. Cocula,      |
 | B. Montanari, D. Quigley, M. Glover,            |
 | L. Bernasconi, A. Perlov, M. Plummer,           |
 | E. McNellis, J. Meyer, J. Gale, D. Jochym       |
 | J. Aarons, B. Walker, R. Gillen, D. Jones       |
 | T. Green, I. J. Bush, C. J. Armstrong,          |
 | E. J. Higgins, E. L. Brown, M. S. McFly,        |
 | J. Wilkins, B-C. Shih, P. J. P. Byrne,          |
 | R. J. Maurer, J. C. Womack, J. Dziedzic,        |
 | L. LeBlanc, T. K. Stenczel, J. Kermode,         |
 | S. Sturniolo, B. Shi, B. Durham, M. Evans,      |
 | M. J. Smith, A. Tamerus, Z. Hawkhead,           |
 | V. Ravindran, T. Hollins, S. A. Joyce,          |
 | R. T. Strong, A. M. Reilly, S. J. Donaldson,    |
 | J. C. A. Prentice                               |
 |                                                 |
 | Copyright (c) 2000 - 2024                       |
 |                                                 |
 |     Distributed under license from Cambridge    |
 |     Enterprise for academic use only.           |
 |                                                 |
 | Please cite                                     |
 |                                                 |
 |     "First principles methods using CASTEP"     |
 |                                                 |
 |         Zeitschrift fuer Kristallographie       |
 |           220(5-6) pp. 567-570 (2005)           |
 |                                                 |
 | S. J. Clark, M. D. Segall, C. J. Pickard,       |
 | P. J. Hasnip, M. J. Probert, K. Refson,         |
 | M. C. Payne                                     |
 |                                                 |
 |       in all publications arising from          |
 |              your use of CASTEP                 |
 |                                                 |
 +-------------------------------------------------+
 |                                                 |
 |              http://www.castep.org              |
 |                                                 |
 +-------------------------------------------------+



 Compiled for linux_x86_64_gfortran10 on Sun, 13 Jul 2025 14:49:40 -0400
 from code version git version unavailable
 Compiler: GNU Fortran 13.3.0; Optimisation: fast
 Comms   : Open MPI v5.0.3
 MATHLIBS: flexiblas (IMKL) (LAPACK version 3.12.0)
 FFT Lib : fftw3 version fftw-3.3.10-sse2-avx-avx2-avx2_128
 Fundamental constants values: CODATA 2018

 Run started: Sun, 21 Dec 2025 22:03:46 -0500
 Warning in parameters_read: presetting of magnetic moments on atoms cannot be guaranteed when metals_method /= density mixing

 Atomic calculation performed for Li: 1s2 2s1

 Converged in 47 iterations to an ae energy of -202.784 eV

   ============================================================                
   | Pseudopotential Report - Date of generation 21-12-2025   |                
   ------------------------------------------------------------                
   | Element: Li Ionic charge:  3.00 Level of theory: PBE     |                
   | Atomic Solver: Koelling-Harmon                           |                
   |                                                          |                
   |               Reference Electronic Structure             |                
   |         Orbital         Occupation         Energy        |                
   |            1s              2.000           -1.906        |                
   |            2s              1.000           -0.106        |                
   |                                                          |                
   |                 Pseudopotential Definition               |                
   |        Beta     l      e      Rc     scheme   norm       |                
   |          1      0   -1.906   1.001     qc      0         |                
   |          2      0   -0.106   1.001     qc      0         |                
   |          3      0    0.250   1.001     qc      0         |                
   |         loc     1    0.000   1.001     pn      0         |                
   |                                                          |                
   | Augmentation charge Rinner = 0.699                       |                
   | No partial core correction                               |                
   ------------------------------------------------------------                
   | "1|1.0|14|16|18|10U:20(qc=7)"                            |                
   ------------------------------------------------------------                
   |      Author: Chris J. Pickard, Cambridge University      |                
   ============================================================                

 Atomic calculation performed for O: 1s2 2s2 2p4

 Converged in 61 iterations to an ae energy of -2040.902 eV

   ============================================================                
   | Pseudopotential Report - Date of generation 21-12-2025   |                
   ------------------------------------------------------------                
   | Element: O Ionic charge:  6.00 Level of theory: PBE      |                
   | Atomic Solver: Koelling-Harmon                           |                
   |                                                          |                
   |               Reference Electronic Structure             |                
   |         Orbital         Occupation         Energy        |                
   |            2s              2.000           -0.881        |                
   |            2p              4.000           -0.332        |                
   |                                                          |                
   |                 Pseudopotential Definition               |                
   |        Beta     l      e      Rc     scheme   norm       |                
   |          1      0   -0.881   1.100     qc      0         |                
   |          2      0    0.250   1.100     qc      0         |                
   |          3      1   -0.332   1.100     qc      0         |                
   |          4      1    0.250   1.100     qc      0         |                
   |         loc     2    0.000   1.100     pn      0         |                
   |                                                          |                
   | Augmentation charge Rinner = 0.769                       |                
   | Partial core correction Rc = 0.769                       |                
   ------------------------------------------------------------                
   | "2|1.1|17|20|23|20:21(qc=8)"                             |                
   ------------------------------------------------------------                
   |      Author: Chris J. Pickard, Cambridge University      |                
   ============================================================                

 Atomic calculation performed for V: 1s2 2s2 2p6 3s2 3p6 3d3 4s2

 Converged in 81 iterations to an ae energy of -25823.733 eV

   ============================================================                
   | Pseudopotential Report - Date of generation 21-12-2025   |                
   ------------------------------------------------------------                
   | Element: V Ionic charge: 13.00 Level of theory: PBE      |                
   | Atomic Solver: Koelling-Harmon                           |                
   |                                                          |                
   |               Reference Electronic Structure             |                
   |         Orbital         Occupation         Energy        |                
   |            3s              2.000           -2.581        |                
   |            3p              6.000           -1.618        |                
   |            3d              3.000           -0.190        |                
   |            4s              2.000           -0.173        |                
   |                                                          |                
   |                 Pseudopotential Definition               |                
   |        Beta     l      e      Rc     scheme   norm       |                
   |          1      0   -2.581   1.803     qc      0         |                
   |          2      0   -0.173   1.803     qc      0         |                
   |          3      0    0.250   1.803     qc      0         |                
   |          4      1   -1.618   1.803     qc      0         |                
   |          5      1    0.250   1.803     qc      0         |                
   |          6      2   -0.190   1.803     qc      0         |                
   |          7      2    0.250   1.803     qc      0         |                
   |         loc     3    0.000   1.803     pn      0         |                
   |                                                          |                
   | Augmentation charge Rinner = 0.600                       |                
   | Partial core correction Rc = 0.600                       |                
   ------------------------------------------------------------                
   | "3|1.8|1.8|0.6|12|14|16|30U:40:31:32(qc=7)"              |                
   ------------------------------------------------------------                
   |      Author: Chris J. Pickard, Cambridge University      |                
   ============================================================                

 Atomic calculation performed for Fe: 1s2 2s2 2p6 3s2 3p6 3d6 4s2

 Converged in 96 iterations to an ae energy of -34625.102 eV

   ============================================================                
   | Pseudopotential Report - Date of generation 21-12-2025   |                
   ------------------------------------------------------------                
   | Element: Fe Ionic charge:  8.00 Level of theory: PBE     |                
   | Atomic Solver: Koelling-Harmon                           |                
   |                                                          |                
   |               Reference Electronic Structure             |                
   |         Orbital         Occupation         Energy        |                
   |            3d              6.000           -0.276        |                
   |            4s              2.000           -0.194        |                
   |                                                          |                
   |                 Pseudopotential Definition               |                
   |        Beta     l      e      Rc     scheme   norm       |                
   |          1      0   -0.194   2.399     qc      0         |                
   |          2      0    0.250   2.399     qc      0         |                
   |          3      1    0.000   2.399     qc      0         |                
   |          4      1    0.250   2.399     qc      0         |                
   |          5      2   -0.276   1.997     qc      0         |                
   |          6      2    0.250   1.997     qc      0         |                
   |         loc     3    0.000   2.399     pn      0         |                
   |                                                          |                
   | Augmentation charge Rinner = 1.000                       |                
   | Partial core correction Rc = 1.000                       |                
   ------------------------------------------------------------                
   | "3|2.4|2.4|1.0|8|9|10|40:41:32U2U2(qc=5.5)"              |                
   ------------------------------------------------------------                
   |      Author: Chris J. Pickard, Cambridge University      |                
   ============================================================                

 Pseudo atomic calculation performed for Li 1s2 2s1

 Converged in 18 iterations to a total energy of -200.5098 eV

 Pseudo atomic calculation performed for O 2s2 2p4

 Converged in 24 iterations to a total energy of -432.3399 eV

 Pseudo atomic calculation performed for V 3s2 3p6 3d3 4s2

 Converged in 36 iterations to a total energy of -2065.8041 eV

 Pseudo atomic calculation performed for Fe 3d6 4s2

 Converged in 34 iterations to a total energy of -853.8318 eV
 Calculation parallelised over 40 processes.
 Data is distributed by G-vector(40-way)

 ************************************ Title ************************************
 

 ***************************** General Parameters ******************************
  
 output verbosity                               : normal  (1)
 write checkpoint data to                       : ml_dos.check
 type of calculation                            : Electronic Spectroscopy
 stress calculation                             : off
 density difference calculation                 : off
 electron localisation func (ELF) calculation   : off
 Hirshfeld analysis                             : off
 polarisation (Berry phase) analysis            : off
 molecular orbital projected DOS                : off
 deltaSCF calculation                           : off
 unlimited duration calculation
 timing information                             : on
 memory usage estimate                          : on
 write extra output files                       : on
 write final potential to formatted file        : off
 write final density to formatted file          : off
 write BibTeX reference list                    : on
 write OTFG pseudopotential files               : on
 write electrostatic potential file             : on
 write bands file                               : on
 checkpoint writing                             : both castep_bin and check files
  
 output         length unit                     : A
 output           mass unit                     : amu
 output           time unit                     : ps
 output         charge unit                     : e
 output           spin unit                     : hbar/2
 output         energy unit                     : eV
 output          force unit                     : eV/A
 output       velocity unit                     : A/ps
 output       pressure unit                     : GPa
 output     inv_length unit                     : 1/A
 output      frequency unit                     : cm-1
 output force constant unit                     : eV/A**2
 output         volume unit                     : A**3
 output   IR intensity unit                     : (D/A)**2/amu
 output         dipole unit                     : D
 output         efield unit                     : eV/A/e
 output        entropy unit                     : J/mol/K
 output    efield chi2 unit                     : pm/V
  
 wavefunctions paging                           : none
 random number generator seed                   :  220346111
 data distribution                              : optimal for this architecture
 optimization strategy                          : balance speed and memory

 *********************** Exchange-Correlation Parameters ***********************
  
 using functional                               : Perdew Burke Ernzerhof
 relativistic treatment                         : Koelling-Harmon
 DFT+D: Semi-empirical dispersion correction    : off

 ************************* Pseudopotential Parameters **************************
  
 pseudopotential representation                 : reciprocal space
 <beta|phi> representation                      : reciprocal space
 spin-orbit coupling                            : off

 **************************** Basis Set Parameters *****************************
  
 plane wave basis set cut-off                   :   900.0000   eV
 size of standard grid                          :     2.0000
 size of   fine   gmax                          :    30.7390   1/A
 finite basis set correction                    : none

 **************************** Electronic Parameters ****************************
  
 number of  electrons                           :  486.0    
 net charge of system                           :  0.000    
 net spin   of system                           :  39.00    
 number of  up  spins                           :  262.5    
 number of down spins                           :  223.5    
 treating system as spin-polarized
 number of bands                                :        316
 electron temperature                           :     0.0000   K

 ********************* Electronic Minimization Parameters **********************
  
 Method: Treating system as metallic with ensemble DFT treatment of electrons,
         and number of  SD  steps               :          1
         and number of  CG  steps               :          4
  
 total energy / atom convergence tol.           : 0.1000E-05   eV
 max force / atom convergence tol.              : ignored
 convergence tolerance window                   :          3   cycles
 max. number of SCF cycles                      :        100
 number of fixed-spin iterations                :         10
 smearing scheme                                : Gaussian
 smearing width                                 : 0.2000       eV
 Fermi energy convergence tolerance             : 0.2721E-13   eV
 number of occupancy cycles                     :          6
 periodic dipole correction                     : NONE

 *********************** Population Analysis Parameters ************************
  
 Population analysis with cutoff                :  3.000       A
 Population analysis output                     : summary and pdos components
 Partial DOS weights calculated

 ********************* Electronic Spectroscopy Parameters **********************
  
 electronic spectroscopy with theory level      : DFT       
 spectroscopy calculation                       : density of states
 max. number of iterations                      :         60
 max. steps per iteration                       :          5
 number of bands / k-point                      :        405
 band convergence tolerance                     : 0.1000E-05   eV
 write orbitals file                            : off

 *******************************************************************************
  

                           -------------------------------
                                      Unit Cell
                           -------------------------------
        Real Lattice(A)                      Reciprocal Lattice(1/A)
     8.1445100     0.0000000     0.0000000        0.771462655  -0.402644789   0.038507083
     3.7684220     7.2202520     0.0000000        0.000000000   0.870216899   0.038507164
    -1.0475690    -0.6349170    14.3483820        0.000000000   0.000000000   0.437902009

                       Lattice parameters(A)       Cell Angles
                    a =      8.144510          alpha =   94.171666
                    b =      8.144510          beta  =   94.171663
                    c =     14.400576          gamma =   62.438868

                       Current cell volume =           843.762553       A**3
                                   density =             2.000270   AMU/A**3
                                           =             3.321526     g/cm^3

                           -------------------------------
                                     Cell Contents
                           -------------------------------
                         Total number of ions in cell =   70
                      Total number of species in cell =    4
                        Max number of any one species =   42

            xxxxxxxxxxxxxxxxxxxxxxxxxxxxxxxxxxxxxxxxxxxxxxxxxxxxxxxxxxxx
            x  Element    Atom        Fractional coordinates of atoms  x
            x            Number           u          v          w      x
            x----------------------------------------------------------x
            x  Li           1         0.915438   0.292027   0.683790   x 
            x  Li           2         0.292028   0.915439   0.183791   x 
            x  Li           3         0.012785   0.643392   0.037320   x 
            x  Li           4         0.643391   0.012787   0.537320   x 
            x  Li           5         0.337936   0.702440   0.371467   x 
            x  Li           6         0.702439   0.337937   0.871467   x 
            x  Li           7         0.537410   0.041837   0.237427   x 
            x  Li           8         0.041837   0.537410   0.737427   x 
            x  Li           9         0.812217   0.234319   0.189768   x 
            x  Li          10         0.234321   0.812215   0.689767   x 
            x  O            1         0.147020   0.808699   0.478049   x 
            x  O            2         0.808700   0.147020   0.978049   x 
            x  O            3         0.191597   0.493416   0.141184   x 
            x  O            4         0.493417   0.191598   0.641184   x 
            x  O            5         0.282732   0.214859   0.282374   x 
            x  O            6         0.214859   0.282732   0.782375   x 
            x  O            7         0.898829   0.883669   0.120062   x 
            x  O            8         0.883669   0.898830   0.620061   x 
            x  O            9         0.777969   0.076434   0.286570   x 
            x  O           10         0.076435   0.777969   0.786570   x 
            x  O           11         0.156504   0.455462   0.443331   x 
            x  O           12         0.455461   0.156505   0.943331   x 
            x  O           13         0.647310   0.442378   0.622422   x 
            x  O           14         0.442377   0.647310   0.122423   x 
            x  O           15         0.824170   0.409869   0.298658   x 
            x  O           16         0.409870   0.824169   0.798660   x 
            x  O           17         0.616886   0.554560   0.440842   x 
            x  O           18         0.554555   0.616885   0.940841   x 
            x  O           19         0.549354   0.809263   0.302526   x 
            x  O           20         0.809264   0.549353   0.802526   x 
            x  O           21         0.540582   0.816151   0.604634   x 
            x  O           22         0.816152   0.540581   0.104634   x 
            x  O           23         0.282324   0.065210   0.455130   x 
            x  O           24         0.065212   0.282325   0.955130   x 
            x  O           25         0.920785   0.674157   0.284636   x 
            x  O           26         0.674157   0.920785   0.784635   x 
            x  O           27         0.160145   0.839942   0.268002   x 
            x  O           28         0.839942   0.160144   0.768002   x 
            x  O           29         0.457603   0.459008   0.290421   x 
            x  O           30         0.459007   0.457605   0.790420   x 
            x  O           31         0.894957   0.188547   0.472205   x 
            x  O           32         0.188546   0.894961   0.972204   x 
            x  O           33         0.576830   0.253422   0.127287   x 
            x  O           34         0.253423   0.576828   0.627286   x 
            x  O           35         0.791782   0.738014   0.465954   x 
            x  O           36         0.738013   0.791789   0.965955   x 
            x  O           37         0.148237   0.057447   0.631556   x 
            x  O           38         0.057447   0.148238   0.131556   x 
            x  O           39         0.538552   0.203892   0.433446   x 
            x  O           40         0.203892   0.538553   0.933445   x 
            x  O           41         0.922157   0.530101   0.609237   x 
            x  O           42         0.530101   0.922157   0.109236   x 
            x  V            1         0.410807   0.467406   0.170834   x 
            x  V            2         0.467406   0.410808   0.670835   x 
            x  V            3         0.741433   0.646095   0.352184   x 
            x  V            4         0.646095   0.741431   0.852185   x 
            x  V            5         0.111372   0.031916   0.511678   x 
            x  V            6         0.031915   0.111372   0.011678   x 
            x  V            7         0.693698   0.609983   0.559164   x 
            x  V            8         0.609986   0.693698   0.059162   x 
            x  V            9         0.312786   0.242370   0.401513   x 
            x  V           10         0.242366   0.312786   0.901515   x 
            x  V           11         0.946051   0.862615   0.240204   x 
            x  V           12         0.862616   0.946050   0.740204   x 
            x  Fe           1         0.693875   0.299462   0.375745   x 
            x  Fe           2         0.299466   0.693875   0.875744   x 
            x  Fe           3         0.038740   0.661047   0.535623   x 
            x  Fe           4         0.661049   0.038735   0.035622   x 
            x  Fe           5         0.398232   0.039846   0.708101   x 
            x  Fe           6         0.039847   0.398231   0.208101   x 
            xxxxxxxxxxxxxxxxxxxxxxxxxxxxxxxxxxxxxxxxxxxxxxxxxxxxxxxxxxxx


                         No user defined ionic velocities

                           -------------------------------
                                   Details of Species
                           -------------------------------

                               Mass of species in AMU
                                    Li    6.9410000
                                    O   15.9994000
                                    V   50.9415000
                                    Fe   55.8450000

                          Electric Quadrupole Moment (Barn)
                                    Li   -0.0401000 Isotope   7
                                    O   -0.0255800 Isotope  17
                                    V   -0.0520000 Isotope  51
                                    Fe    0.1600000 Isotope  57
         xxxxxxxxxxxxxxxxxxxxxxxxxxxxxxxxxxxxxxxxxxxxxxxxxxxxxxxxxxxxxxxxxxxxxx
         |  Element    Atom         Initial            Initial magnetic       |
         |            Number    spin polarization        moment (uB)     Fix? |
         |--------------------------------------------------------------------|
         | Li             1         0.000000              0.000       F       |
         | Li             2         0.000000              0.000       F       |
         | Li             3         0.000000              0.000       F       |
         | Li             4         0.000000              0.000       F       |
         | Li             5         0.000000              0.000       F       |
         | Li             6         0.000000              0.000       F       |
         | Li             7         0.000000              0.000       F       |
         | Li             8         0.000000              0.000       F       |
         | Li             9         0.000000              0.000       F       |
         | Li            10         0.000000              0.000       F       |
         | O              1         0.000000              0.000       F       |
         | O              2         0.000000              0.000       F       |
         | O              3         0.000000              0.000       F       |
         | O              4         0.000000              0.000       F       |
         | O              5         0.000000              0.000       F       |
         | O              6         0.000000              0.000       F       |
         | O              7         0.000000              0.000       F       |
         | O              8         0.000000              0.000       F       |
         | O              9         0.000000              0.000       F       |
         | O             10         0.000000              0.000       F       |
         | O             11         0.000000              0.000       F       |
         | O             12         0.000000              0.000       F       |
         | O             13         0.000000              0.000       F       |
         | O             14         0.000000              0.000       F       |
         | O             15         0.000000              0.000       F       |
         | O             16         0.000000              0.000       F       |
         | O             17         0.000000              0.000       F       |
         | O             18         0.000000              0.000       F       |
         | O             19         0.000000              0.000       F       |
         | O             20         0.000000              0.000       F       |
         | O             21         0.000000              0.000       F       |
         | O             22         0.000000              0.000       F       |
         | O             23         0.000000              0.000       F       |
         | O             24         0.000000              0.000       F       |
         | O             25         0.000000              0.000       F       |
         | O             26         0.000000              0.000       F       |
         | O             27         0.000000              0.000       F       |
         | O             28         0.000000              0.000       F       |
         | O             29         0.000000              0.000       F       |
         | O             30         0.000000              0.000       F       |
         | O             31         0.000000              0.000       F       |
         | O             32         0.000000              0.000       F       |
         | O             33         0.000000              0.000       F       |
         | O             34         0.000000              0.000       F       |
         | O             35         0.000000              0.000       F       |
         | O             36         0.000000              0.000       F       |
         | O             37         0.000000              0.000       F       |
         | O             38         0.000000              0.000       F       |
         | O             39         0.000000              0.000       F       |
         | O             40         0.000000              0.000       F       |
         | O             41         0.000000              0.000       F       |
         | O             42         0.000000              0.000       F       |
         | V              1         0.076923              1.000       F       |
         | V              2         0.076923              1.000       F       |
         | V              3         0.076923              1.000       F       |
         | V              4         0.076923              1.000       F       |
         | V              5         0.076923              1.000       F       |
         | V              6         0.076923              1.000       F       |
         | V              7         0.076923              1.000       F       |
         | V              8         0.076923              1.000       F       |
         | V              9         0.076923              1.000       F       |
         | V             10         0.076923              1.000       F       |
         | V             11         0.076923              1.000       F       |
         | V             12         0.076923              1.000       F       |
         | Fe             1         0.562500              4.500       F       |
         | Fe             2         0.562500              4.500       F       |
         | Fe             3         0.562500              4.500       F       |
         | Fe             4         0.562500              4.500       F       |
         | Fe             5         0.562500              4.500       F       |
         | Fe             6         0.562500              4.500       F       |
         xxxxxxxxxxxxxxxxxxxxxxxxxxxxxxxxxxxxxxxxxxxxxxxxxxxxxxxxxxxxxxxxxxxxxx



         Quantisation axis:    0.00000   0.00000   1.00000

         Units for Hubbard U values are eV
         xxxxxxxxxxxxxxxxxxxxxxxxxxxxxxxxxxxxxxxxxxxxxxxxxxxxxxxxxxxxxxxxxxxx
         |  Element     Atom     Hubbard U   values by orbital type         |
         |             Number      s          p          d          f       |
         |------------------------------------------------------------------|
         |Li            1         0.00000    0.00000    0.00000    0.00000  |
         |Li            2         0.00000    0.00000    0.00000    0.00000  |
         |Li            3         0.00000    0.00000    0.00000    0.00000  |
         |Li            4         0.00000    0.00000    0.00000    0.00000  |
         |Li            5         0.00000    0.00000    0.00000    0.00000  |
         |Li            6         0.00000    0.00000    0.00000    0.00000  |
         |Li            7         0.00000    0.00000    0.00000    0.00000  |
         |Li            8         0.00000    0.00000    0.00000    0.00000  |
         |Li            9         0.00000    0.00000    0.00000    0.00000  |
         |Li           10         0.00000    0.00000    0.00000    0.00000  |
         |O             1         0.00000    0.00000    0.00000    0.00000  |
         |O             2         0.00000    0.00000    0.00000    0.00000  |
         |O             3         0.00000    0.00000    0.00000    0.00000  |
         |O             4         0.00000    0.00000    0.00000    0.00000  |
         |O             5         0.00000    0.00000    0.00000    0.00000  |
         |O             6         0.00000    0.00000    0.00000    0.00000  |
         |O             7         0.00000    0.00000    0.00000    0.00000  |
         |O             8         0.00000    0.00000    0.00000    0.00000  |
         |O             9         0.00000    0.00000    0.00000    0.00000  |
         |O            10         0.00000    0.00000    0.00000    0.00000  |
         |O            11         0.00000    0.00000    0.00000    0.00000  |
         |O            12         0.00000    0.00000    0.00000    0.00000  |
         |O            13         0.00000    0.00000    0.00000    0.00000  |
         |O            14         0.00000    0.00000    0.00000    0.00000  |
         |O            15         0.00000    0.00000    0.00000    0.00000  |
         |O            16         0.00000    0.00000    0.00000    0.00000  |
         |O            17         0.00000    0.00000    0.00000    0.00000  |
         |O            18         0.00000    0.00000    0.00000    0.00000  |
         |O            19         0.00000    0.00000    0.00000    0.00000  |
         |O            20         0.00000    0.00000    0.00000    0.00000  |
         |O            21         0.00000    0.00000    0.00000    0.00000  |
         |O            22         0.00000    0.00000    0.00000    0.00000  |
         |O            23         0.00000    0.00000    0.00000    0.00000  |
         |O            24         0.00000    0.00000    0.00000    0.00000  |
         |O            25         0.00000    0.00000    0.00000    0.00000  |
         |O            26         0.00000    0.00000    0.00000    0.00000  |
         |O            27         0.00000    0.00000    0.00000    0.00000  |
         |O            28         0.00000    0.00000    0.00000    0.00000  |
         |O            29         0.00000    0.00000    0.00000    0.00000  |
         |O            30         0.00000    0.00000    0.00000    0.00000  |
         |O            31         0.00000    0.00000    0.00000    0.00000  |
         |O            32         0.00000    0.00000    0.00000    0.00000  |
         |O            33         0.00000    0.00000    0.00000    0.00000  |
         |O            34         0.00000    0.00000    0.00000    0.00000  |
         |O            35         0.00000    0.00000    0.00000    0.00000  |
         |O            36         0.00000    0.00000    0.00000    0.00000  |
         |O            37         0.00000    0.00000    0.00000    0.00000  |
         |O            38         0.00000    0.00000    0.00000    0.00000  |
         |O            39         0.00000    0.00000    0.00000    0.00000  |
         |O            40         0.00000    0.00000    0.00000    0.00000  |
         |O            41         0.00000    0.00000    0.00000    0.00000  |
         |O            42         0.00000    0.00000    0.00000    0.00000  |
         |V             1         0.00000    0.00000    3.25000    0.00000  |
         |V             2         0.00000    0.00000    3.25000    0.00000  |
         |V             3         0.00000    0.00000    3.25000    0.00000  |
         |V             4         0.00000    0.00000    3.25000    0.00000  |
         |V             5         0.00000    0.00000    3.25000    0.00000  |
         |V             6         0.00000    0.00000    3.25000    0.00000  |
         |V             7         0.00000    0.00000    3.25000    0.00000  |
         |V             8         0.00000    0.00000    3.25000    0.00000  |
         |V             9         0.00000    0.00000    3.25000    0.00000  |
         |V            10         0.00000    0.00000    3.25000    0.00000  |
         |V            11         0.00000    0.00000    3.25000    0.00000  |
         |V            12         0.00000    0.00000    3.25000    0.00000  |
         |Fe            1         0.00000    0.00000    5.30000    0.00000  |
         |Fe            2         0.00000    0.00000    5.30000    0.00000  |
         |Fe            3         0.00000    0.00000    5.30000    0.00000  |
         |Fe            4         0.00000    0.00000    5.30000    0.00000  |
         |Fe            5         0.00000    0.00000    5.30000    0.00000  |
         |Fe            6         0.00000    0.00000    5.30000    0.00000  |
         xxxxxxxxxxxxxxxxxxxxxxxxxxxxxxxxxxxxxxxxxxxxxxxxxxxxxxxxxxxxxxxxxxxx


                          Files used for pseudopotentials:
                                    Li 1|1.0|14|16|18|10U:20(qc=7)
                                    O 2|1.1|17|20|23|20:21(qc=8)
                                    V 3|1.8|1.8|0.6|12|14|16|30U:40:31:32(qc=7)
                                    Fe 3|2.4|2.4|1.0|8|9|10|40:41:32U2U2(qc=5.5)

                           -------------------------------
                              k-Points For BZ Sampling
                           -------------------------------
                       MP grid size for SCF calculation is  3  3  2
                            with an offset of   0.000  0.000  0.000
                       Number of kpoints used =             9

                           -------------------------------
                               Symmetry and Constraints
                           -------------------------------

                      Maximum deviation from symmetry =  0.00000         ANG

                      Number of symmetry operations   =           1
                      Number of ionic constraints     =           3
                      Point group of crystal =     1: C1, 1, 1
                      Space group of crystal =     9: Cc, C -2yc

             Set iprint > 1 for details on symmetry rotations/translations

                         Centre of mass is constrained
             Set iprint > 2 for details of linear ionic constraints

                         Number of cell constraints= 0
                         Cell constraints are:  1 2 3 4 5 6

                         External pressure/stress (GPa)
                          0.00000   0.00000   0.00000
                                    0.00000   0.00000
                                              0.00000
 
+---------------- MEMORY AND SCRATCH DISK ESTIMATES PER PROCESS --------------+
|                                                     Memory          Disk    |
| Baseline code, static data and system overhead      809.0 MB         0.0 MB |
| BLAS internal memory storage                          0.0 MB         0.0 MB |
| Model and support data                              564.8 MB         0.0 MB |
| Electronic energy minimisation requirements         728.7 MB         0.0 MB |
| Force calculation requirements                        6.4 MB         0.0 MB |
|                                               ----------------------------- |
| Approx. total storage required per process         2102.6 MB         0.0 MB |
|                                                                             |
| Requirements will fluctuate during execution and may exceed these estimates |
+-----------------------------------------------------------------------------+
Calculating approximate eigenstates for fixed initial Hamiltonian
Cut-off for approx. calculation is  375.902 eV
Resetting cut-off to  900.000 eV
Improving states further at cut-off of  900.000 eV
Calculating total energy with cut-off of  900.000 eV.

 Pseudo atomic calculation performed for Li 1s2 2s1

 Converged in 18 iterations to a total energy of -200.5098 eV

 Pseudo atomic calculation performed for O 2s2 2p4

 Converged in 24 iterations to a total energy of -432.3399 eV

 Pseudo atomic calculation performed for V 3s2 3p6 3d3 4s2

 Converged in 36 iterations to a total energy of -2065.8041 eV

 Pseudo atomic calculation performed for Fe 3d6 4s2

 Converged in 34 iterations to a total energy of -853.8318 eV
------------------------------------------------------------------------ <-- SCF
SCF loop      Energy           Fermi           Energy gain       Timer   <-- SCF
                               energy          per atom          (sec)   <-- SCF
------------------------------------------------------------------------ <-- SCF
Initial  -4.71806733E+004  6.61528027E+000                       177.55  <-- SCF
      1  -5.05115944E+004  3.87460877E+000   4.75845865E+001     821.93  <-- SCF
      2  -5.05683785E+004  3.35859585E+000   8.11200778E-001    1413.65  <-- SCF
      3  -5.05705756E+004  3.17281330E+000   3.13873846E-002    1968.52  <-- SCF
      4  -5.05706548E+004  3.16759882E+000   1.13112759E-003    2325.70  <-- SCF
      5  -5.05706646E+004  3.16529505E+000   1.40173142E-004    2681.93  <-- SCF
      6  -5.05706726E+004  3.15780613E+000   1.14119111E-004    3038.76  <-- SCF
      7  -5.05706771E+004  3.15178366E+000   6.46861758E-005    3397.54  <-- SCF
      8  -5.05706789E+004  3.15081368E+000   2.62785518E-005    3769.02  <-- SCF
      9  -5.05706812E+004  3.14542384E+000   3.19203912E-005    4147.45  <-- SCF
     10  -5.05445310E+004  3.90037939E+000  -3.73573763E-001    4594.53  <-- SCF
     11  -5.05510538E+004  3.70073515E+000   9.31822244E-002    5353.71  <-- SCF
     12  -5.05514019E+004  3.65327055E+000   4.97346067E-003    6125.83  <-- SCF
     13  -5.05515443E+004  3.56902914E+000   2.03370083E-003    6851.92  <-- SCF
     14  -5.05517234E+004  3.49353402E+000   2.55953130E-003    7605.06  <-- SCF
     15  -5.05519789E+004  3.45823730E+000   3.65020857E-003    8354.57  <-- SCF
     16  -5.05520318E+004  3.40720064E+000   7.54593044E-004    9034.68  <-- SCF
     17  -5.05520394E+004  3.40410690E+000   1.09604092E-004    9700.21  <-- SCF
     18  -5.05520439E+004  3.40083361E+000   6.45114895E-005   10298.98  <-- SCF
     19  -5.05520470E+004  3.39924347E+000   4.38922907E-005   10962.16  <-- SCF
     20  -5.05520496E+004  3.39762542E+000   3.68535214E-005   11628.35  <-- SCF
     21  -5.05520530E+004  3.39586742E+000   4.80932880E-005   12290.67  <-- SCF
     22  -5.05520555E+004  3.39461116E+000   3.65251331E-005   12954.04  <-- SCF
     23  -5.05520584E+004  3.39323751E+000   4.14325082E-005   13617.61  <-- SCF
     24  -5.05520611E+004  3.39209029E+000   3.80126583E-005   14279.76  <-- SCF
     25  -5.05520641E+004  3.39088798E+000   4.29515487E-005   14896.01  <-- SCF
     26  -5.05520672E+004  3.38965816E+000   4.46804148E-005   15561.23  <-- SCF
     27  -5.05520700E+004  3.38870475E+000   3.98144237E-005   16232.56  <-- SCF
     28  -5.05520744E+004  3.38728501E+000   6.33791283E-005   16900.09  <-- SCF
     29  -5.05520776E+004  3.38644029E+000   4.54163661E-005   17572.64  <-- SCF
     30  -5.05520802E+004  3.38589630E+000   3.68785278E-005   18245.48  <-- SCF
     31  -5.05520828E+004  3.38541686E+000   3.70404768E-005   18917.08  <-- SCF
     32  -5.05520847E+004  3.38523094E+000   2.66494554E-005   19589.87  <-- SCF
     33  -5.05520867E+004  3.38513859E+000   2.93552350E-005   20256.54  <-- SCF
     34  -5.05520879E+004  3.38523179E+000   1.65997410E-005   20927.04  <-- SCF
     35  -5.05520888E+004  3.38539864E+000   1.28667322E-005   21604.83  <-- SCF
     36  -5.05520896E+004  3.38566134E+000   1.16064191E-005   22275.58  <-- SCF
     37  -5.05520902E+004  3.38600625E+000   8.36836559E-006   22938.74  <-- SCF
     38  -5.05520904E+004  3.38621667E+000   3.54013209E-006   23608.10  <-- SCF
     39  -5.05520906E+004  3.38647300E+000   3.16202731E-006   24276.64  <-- SCF
     40  -5.05520907E+004  3.38665237E+000   1.53960264E-006   24945.51  <-- SCF
     41  -5.05520908E+004  3.38685496E+000   1.42921500E-006   25608.21  <-- SCF
     42  -5.05520909E+004  3.38698754E+000   6.76643923E-007   26276.48  <-- SCF
     43  -5.05520909E+004  3.38712782E+000   5.80715123E-007   26857.84  <-- SCF
     44  -5.05520910E+004  3.38722805E+000   3.60476963E-007   27522.85  <-- SCF
------------------------------------------------------------------------ <-- SCF
 
Integrated Spin Density     =     26.0001     hbar/2
Integrated |Spin Density|   =     26.6495     hbar/2
 

     Hubbard U occupation numbers
     ----------------------------
Species   Ion   l  spin               occupancies
==================================================================
  V        1    2   up:   0.42  0.44  0.48  0.51  0.52
                    dn:   0.38  0.41  0.46  0.49  0.50
  V        2    2   up:   0.42  0.44  0.48  0.51  0.52
                    dn:   0.38  0.41  0.46  0.49  0.50
  V        3    2   up:   0.33  0.42  0.51  0.53  0.54
                    dn:   0.27  0.40  0.50  0.51  0.52
  V        4    2   up:   0.33  0.42  0.51  0.53  0.54
                    dn:   0.27  0.40  0.50  0.51  0.52
  V        5    2   up:   0.42  0.44  0.48  0.52  0.53
                    dn:   0.38  0.41  0.46  0.48  0.51
  V        6    2   up:   0.42  0.44  0.48  0.52  0.53
                    dn:   0.38  0.41  0.46  0.48  0.51
  V        7    2   up:   0.37  0.41  0.51  0.52  0.54
                    dn:   0.30  0.39  0.50  0.50  0.51
  V        8    2   up:   0.37  0.41  0.51  0.52  0.54
                    dn:   0.30  0.39  0.50  0.50  0.51
  V        9    2   up:   0.43  0.44  0.48  0.52  0.52
                    dn:   0.37  0.43  0.46  0.48  0.50
  V       10    2   up:   0.43  0.44  0.48  0.52  0.52
                    dn:   0.37  0.43  0.46  0.48  0.50
  V       11    2   up:   0.41  0.43  0.48  0.52  0.52
                    dn:   0.39  0.42  0.47  0.49  0.51
  V       12    2   up:   0.41  0.43  0.48  0.52  0.52
                    dn:   0.39  0.42  0.47  0.49  0.51
  Fe       1    2   up:   0.97  0.98  0.99  1.00  1.00
                    dn:   0.06  0.06  0.19  0.21  0.95
  Fe       2    2   up:   0.97  0.98  0.99  1.00  1.00
                    dn:   0.06  0.06  0.19  0.21  0.95
  Fe       3    2   up:   0.99  0.99  1.00  1.00  1.00
                    dn:   0.10  0.11  0.11  0.40  0.40
  Fe       4    2   up:   0.99  0.99  1.00  1.00  1.00
                    dn:   0.10  0.11  0.11  0.40  0.40
  Fe       5    2   up:   0.99  0.99  1.00  1.00  1.00
                    dn:   0.04  0.05  0.13  0.16  0.98
  Fe       6    2   up:   0.99  0.99  1.00  1.00  1.00
                    dn:   0.04  0.05  0.13  0.16  0.98
==================================================================

Final energy, E             =  -50552.09068918     eV
Final free energy (E-TS)    =  -50552.09096250     eV
(energies not corrected for finite basis set)
 
NB est. 0K energy (E-0.5TS)      =  -50552.09082584     eV
 

Writing analysis data to ml_dos.castep_bin

Writing model to ml_dos.check
 
+---------------- MEMORY AND SCRATCH DISK ESTIMATES PER PROCESS --------------+
|                                                     Memory          Disk    |
|                                               ----------------------------- |
| Approx. total storage required per process         1629.6 MB         0.0 MB |
|                                                                             |
| Requirements will fluctuate during execution and may exceed these estimates |
+-----------------------------------------------------------------------------+
 
  =====================================================================
  +                                                                   +
  +                 Calculation of Spectral Properties                +
  +                                                                   +
  + Calculation re-parallelised over 36 processes.                    +
  + There are 9 k-points distributed across 9 k-point groups.         +
  + Data distributed by G-vector(4-way), k-point(9-way), band(1-way)  +
  + Data distributed by G-vector(4-way), k-point(9-way)               +
  +                                                                   +
  =====================================================================

 Pseudo atomic calculation performed for Li 1s2 2s1

 Converged in 18 iterations to a total energy of -200.5098 eV

 Pseudo atomic calculation performed for O 2s2 2p4

 Converged in 24 iterations to a total energy of -432.3399 eV

 Pseudo atomic calculation performed for V 3s2 3p6 3d3 4s2

 Converged in 36 iterations to a total energy of -2065.8041 eV

 Pseudo atomic calculation performed for Fe 3d6 4s2

 Converged in 34 iterations to a total energy of -853.8318 eV

 Pseudo atomic calculation performed for Li 1s2 2s1

 Converged in 18 iterations to a total energy of -200.5098 eV

 Pseudo atomic calculation performed for O 2s2 2p4

 Converged in 24 iterations to a total energy of -432.3399 eV

 Pseudo atomic calculation performed for V 3s2 3p6 3d3 4s2

 Converged in 36 iterations to a total energy of -2065.8041 eV

 Pseudo atomic calculation performed for Fe 3d6 4s2

 Converged in 34 iterations to a total energy of -853.8318 eV
  Starting k-point:        1 of        1 Time:      0.00 sec  |<-- SPEC

 Pseudo atomic calculation performed for Li 1s2 2s1

 Converged in 18 iterations to a total energy of -200.5098 eV

 Pseudo atomic calculation performed for O 2s2 2p4

 Converged in 24 iterations to a total energy of -432.3399 eV

 Pseudo atomic calculation performed for V 3s2 3p6 3d3 4s2

 Converged in 36 iterations to a total energy of -2065.8041 eV

 Pseudo atomic calculation performed for Fe 3d6 4s2

 Converged in 34 iterations to a total energy of -853.8318 eV
  Starting k-point:        1 of        1 Time:    431.76 sec  |<-- SPEC

 Pseudo atomic calculation performed for Li 1s2 2s1

 Converged in 18 iterations to a total energy of -200.5098 eV

 Pseudo atomic calculation performed for O 2s2 2p4

 Converged in 24 iterations to a total energy of -432.3399 eV

 Pseudo atomic calculation performed for V 3s2 3p6 3d3 4s2

 Converged in 36 iterations to a total energy of -2065.8041 eV

 Pseudo atomic calculation performed for Fe 3d6 4s2

 Converged in 34 iterations to a total energy of -853.8318 eV
  Check-pointing spectral run                                 |<-- SPEC
  Total time to compute matrix elements            865.17 sec |<-- SPEC
  
  + Calculation re-parallelised over 40 processes.                    +
  + Data distributed by G-vector(40-way)                              +

 Pseudo atomic calculation performed for Li 1s2 2s1

 Converged in 18 iterations to a total energy of -200.5098 eV

 Pseudo atomic calculation performed for O 2s2 2p4

 Converged in 24 iterations to a total energy of -432.3399 eV

 Pseudo atomic calculation performed for V 3s2 3p6 3d3 4s2

 Converged in 36 iterations to a total energy of -2065.8041 eV

 Pseudo atomic calculation performed for Fe 3d6 4s2

 Converged in 34 iterations to a total energy of -853.8318 eV

 ************************** Forces **************************
 *                                                          *
 *               Cartesian components (eV/A)                *
 * -------------------------------------------------------- *
 *                         x            y            z      *
 *                                                          *
 * Li              1     -0.03263     -0.12037     -0.00754 *
 * Li              2     -0.12264      0.02777     -0.00712 *
 * Li              3      0.12191      0.04612     -0.07941 *
 * Li              4      0.09762      0.08687     -0.07996 *
 * Li              5     -0.05842     -0.09139     -0.01281 *
 * Li              6     -0.10783     -0.00951     -0.01347 *
 * Li              7      0.09469      0.14407      0.03180 *
 * Li              8      0.17072      0.01730      0.03141 *
 * Li              9     -0.08158     -0.05927      0.08170 *
 * Li             10     -0.09051     -0.04484      0.08126 *
 * O               1      0.16222      0.30585      0.09684 *
 * O               2      0.34581      0.00309      0.09724 *
 * O               3      0.74903     -0.04926     -0.04671 *
 * O               4      0.30408      0.68901     -0.04846 *
 * O               5      0.15292     -0.15474      0.57901 *
 * O               6     -0.06837      0.20800      0.57917 *
 * O               7     -0.02242     -0.11550      0.31087 *
 * O               8     -0.11266      0.03499      0.31180 *
 * O               9      0.37484     -2.19283     -1.28979 *
 * O              10     -1.76934      1.34677     -1.29191 *
 * O              11      0.08469     -0.64448     -0.36385 *
 * O              12     -0.53272      0.37477     -0.36333 *
 * O              13      0.20959      0.38345     -0.18561 *
 * O              14      0.43849      0.00829     -0.18441 *
 * O              15      0.86061      1.30561     -0.07354 *
 * O              16      1.55359      0.15516     -0.07375 *
 * O              17      0.79944      1.19410      0.80159 *
 * O              18      1.42718      0.15365      0.79934 *
 * O              19      0.49047     -0.81042      0.44647 *
 * O              20     -0.49285      0.80824      0.44425 *
 * O              21      0.41250     -0.98791     -0.58716 *
 * O              22     -0.68522      0.82241     -0.58602 *
 * O              23     -0.07267      0.17319     -0.01362 *
 * O              24      0.11882     -0.14253     -0.01400 *
 * O              25     -0.28931      0.06582      0.23523 *
 * O              26     -0.07544     -0.28829      0.23458 *
 * O              27     -0.52818      0.08071     -0.22964 *
 * O              28     -0.17203     -0.50431     -0.23197 *
 * O              29     -0.54736      0.60244     -1.73997 *
 * O              30      0.28150     -0.76334     -1.74127 *
 * O              31      1.74246     -1.49587      1.37009 *
 * O              32     -0.52180      2.23840      1.36893 *
 * O              33     -0.11636      0.65062      0.39486 *
 * O              34      0.52393     -0.40369      0.39334 *
 * O              35     -0.32722     -0.07833     -0.22129 *
 * O              36     -0.21898     -0.25545     -0.22053 *
 * O              37     -0.11868      0.08322     -0.24189 *
 * O              38      0.01851     -0.14189     -0.24195 *
 * O              39     -1.99831     -0.22139     -0.05694 *
 * O              40     -1.12243     -1.66740     -0.05740 *
 * O              41     -0.29120      0.13179     -0.17377 *
 * O              42     -0.01670     -0.31786     -0.17210 *
 * V               1     -0.32067     -0.21448      1.04411 *
 * V               2     -0.33656     -0.18431      1.03592 *
 * V               3     -0.42497     -0.03177     -0.40840 *
 * V               4     -0.22164     -0.37234     -0.42035 *
 * V               5     -0.81812      0.69493     -0.53402 *
 * V               6      0.23763     -1.04297     -0.53166 *
 * V               7     -0.69602      0.14104      0.09846 *
 * V               8     -0.18926     -0.68747      0.10669 *
 * V               9      0.89325      0.03470      0.41372 *
 * V              10      0.44093      0.77678      0.40815 *
 * V              11      0.15308      0.97652      0.40682 *
 * V              12      0.93746     -0.31432      0.40003 *
 * Fe              1     -0.37117     -0.00469     -0.15994 *
 * Fe              2     -0.17749     -0.32682     -0.16053 *
 * Fe              3      0.15879      0.13784      0.02877 *
 * Fe              4      0.19655      0.07879      0.03043 *
 * Fe              5     -0.17047     -0.17276      0.10158 *
 * Fe              6     -0.23309     -0.06949      0.10160 *
 *                                                          *
 ************************************************************

 Pseudo atomic calculation performed for Li 1s2 2s1

 Converged in 18 iterations to a total energy of -200.5098 eV

 Pseudo atomic calculation performed for O 2s2 2p4

 Converged in 24 iterations to a total energy of -432.3399 eV

 Pseudo atomic calculation performed for V 3s2 3p6 3d3 4s2

 Converged in 36 iterations to a total energy of -2065.8041 eV

 Pseudo atomic calculation performed for Fe 3d6 4s2

 Converged in 34 iterations to a total energy of -853.8318 eV
Charge spilling parameter for spin component 1 = 0.16%
Charge spilling parameter for spin component 2 = 0.15%

                   Orbital Populations                  
  ---------------------------------------------------------------
     Ion    Atom   Orbital              Up        Down      Spin
  ---------------------------------------------------------------
     Li     1      S                    1.001     1.001     0.000
     Li     1      S                   -0.004    -0.003    -0.001
     Li     1      Px                   0.047     0.049    -0.002
     Li     1      Py                   0.046     0.046    -0.000
     Li     1      Pz                   0.034     0.034    -0.000
     Li     2      S                    1.001     1.001     0.000
     Li     2      S                   -0.004    -0.003    -0.001
     Li     2      Px                   0.043     0.042     0.001
     Li     2      Py                   0.049     0.052    -0.003
     Li     2      Pz                   0.034     0.034    -0.000
     Li     3      S                    1.000     1.000     0.000
     Li     3      S                    0.002     0.008    -0.006
     Li     3      Px                   0.028     0.031    -0.003
     Li     3      Py                   0.030     0.035    -0.006
     Li     3      Pz                   0.037     0.040    -0.004
     Li     4      S                    1.000     1.000     0.000
     Li     4      S                    0.002     0.008    -0.006
     Li     4      Px                   0.017     0.022    -0.005
     Li     4      Py                   0.040     0.044    -0.004
     Li     4      Pz                   0.037     0.040    -0.004
     Li     5      S                    1.000     1.000     0.000
     Li     5      S                    0.004     0.007    -0.004
     Li     5      Px                   0.025     0.028    -0.002
     Li     5      Py                   0.034     0.037    -0.003
     Li     5      Pz                   0.040     0.042    -0.002
     Li     6      S                    1.000     1.000     0.000
     Li     6      S                    0.004     0.007    -0.004
     Li     6      Px                   0.019     0.021    -0.003
     Li     6      Py                   0.041     0.043    -0.003
     Li     6      Pz                   0.040     0.042    -0.002
     Li     7      S                    1.001     1.001     0.000
     Li     7      S                    0.002     0.008    -0.006
     Li     7      Px                   0.069     0.070    -0.001
     Li     7      Py                   0.040     0.041    -0.001
     Li     7      Pz                   0.035     0.041    -0.006
     Li     8      S                    1.001     1.001     0.000
     Li     8      S                    0.002     0.008    -0.006
     Li     8      Px                   0.050     0.052    -0.002
     Li     8      Py                   0.059     0.059     0.000
     Li     8      Pz                   0.035     0.041    -0.006
     Li     9      S                    1.001     1.001     0.000
     Li     9      S                   -0.025    -0.010    -0.016
     Li     9      Px                   0.056     0.066    -0.009
     Li     9      Py                   0.035     0.041    -0.005
     Li     9      Pz                   0.036     0.046    -0.010
     Li    10      S                    1.001     1.001     0.000
     Li    10      S                   -0.025    -0.010    -0.016
     Li    10      Px                   0.037     0.046    -0.009
     Li    10      Py                   0.055     0.060    -0.006
     Li    10      Pz                   0.036     0.046    -0.010
      O     1      S                    0.939     0.931     0.008
      O     1      Px                   0.829     0.792     0.037
      O     1      Py                   0.778     0.760     0.018
      O     1      Pz                   0.833     0.813     0.019
      O     2      S                    0.939     0.931     0.008
      O     2      Px                   0.769     0.735     0.034
      O     2      Py                   0.839     0.818     0.021
      O     2      Pz                   0.833     0.813     0.019
      O     3      S                    0.937     0.934     0.003
      O     3      Px                   0.757     0.759    -0.002
      O     3      Py                   0.817     0.818    -0.001
      O     3      Pz                   0.826     0.826    -0.001
      O     4      S                    0.937     0.934     0.003
      O     4      Px                   0.805     0.809    -0.004
      O     4      Py                   0.768     0.768     0.001
      O     4      Pz                   0.826     0.826    -0.001
      O     5      S                    0.938     0.936     0.002
      O     5      Px                   0.819     0.819    -0.000
      O     5      Py                   0.817     0.821    -0.004
      O     5      Pz                   0.761     0.763    -0.002
      O     6      S                    0.938     0.936     0.002
      O     6      Px                   0.818     0.819    -0.001
      O     6      Py                   0.818     0.821    -0.003
      O     6      Pz                   0.761     0.763    -0.002
      O     7      S                    0.935     0.928     0.007
      O     7      Px                   0.836     0.810     0.026
      O     7      Py                   0.830     0.803     0.026
      O     7      Pz                   0.768     0.756     0.012
      O     8      S                    0.935     0.928     0.007
      O     8      Px                   0.832     0.820     0.011
      O     8      Py                   0.834     0.793     0.041
      O     8      Pz                   0.768     0.756     0.012
      O     9      S                    0.937     0.930     0.006
      O     9      Px                   0.821     0.821    -0.000
      O     9      Py                   0.773     0.772     0.001
      O     9      Pz                   0.811     0.809     0.002
      O    10      S                    0.936     0.930     0.006
      O    10      Px                   0.799     0.799     0.000
      O    10      Py                   0.795     0.795     0.000
      O    10      Pz                   0.811     0.809     0.001
      O    11      S                    0.939     0.927     0.012
      O    11      Px                   0.824     0.812     0.012
      O    11      Py                   0.778     0.753     0.025
      O    11      Pz                   0.816     0.788     0.028
      O    12      S                    0.939     0.927     0.012
      O    12      Px                   0.801     0.779     0.023
      O    12      Py                   0.801     0.787     0.014
      O    12      Pz                   0.816     0.788     0.028
      O    13      S                    0.927     0.927    -0.001
      O    13      Px                   0.772     0.775    -0.002
      O    13      Py                   0.812     0.815    -0.003
      O    13      Pz                   0.811     0.815    -0.005
      O    14      S                    0.927     0.927    -0.001
      O    14      Px                   0.783     0.787    -0.004
      O    14      Py                   0.801     0.803    -0.002
      O    14      Pz                   0.810     0.815    -0.005
      O    15      S                    0.939     0.933     0.006
      O    15      Px                   0.819     0.826    -0.007
      O    15      Py                   0.784     0.777     0.007
      O    15      Pz                   0.827     0.827    -0.000
      O    16      S                    0.939     0.933     0.006
      O    16      Px                   0.778     0.777     0.001
      O    16      Py                   0.824     0.826    -0.001
      O    16      Pz                   0.827     0.827    -0.000
      O    17      S                    0.940     0.935     0.005
      O    17      Px                   0.810     0.813    -0.004
      O    17      Py                   0.826     0.841    -0.016
      O    17      Pz                   0.764     0.767    -0.003
      O    18      S                    0.940     0.935     0.005
      O    18      Px                   0.794     0.817    -0.023
      O    18      Py                   0.841     0.837     0.004
      O    18      Pz                   0.764     0.767    -0.003
      O    19      S                    0.944     0.944    -0.000
      O    19      Px                   0.766     0.773    -0.008
      O    19      Py                   0.762     0.764    -0.002
      O    19      Pz                   0.783     0.788    -0.006
      O    20      S                    0.944     0.944    -0.000
      O    20      Px                   0.781     0.785    -0.004
      O    20      Py                   0.747     0.753    -0.006
      O    20      Pz                   0.782     0.788    -0.006
      O    21      S                    0.941     0.937     0.003
      O    21      Px                   0.793     0.794    -0.001
      O    21      Py                   0.751     0.761    -0.010
      O    21      Pz                   0.785     0.800    -0.015
      O    22      S                    0.941     0.937     0.003
      O    22      Px                   0.770     0.776    -0.006
      O    22      Py                   0.774     0.778    -0.004
      O    22      Pz                   0.785     0.800    -0.015
      O    23      S                    0.926     0.927    -0.001
      O    23      Px                   0.775     0.779    -0.003
      O    23      Py                   0.804     0.806    -0.002
      O    23      Pz                   0.813     0.814    -0.001
      O    24      S                    0.926     0.927    -0.001
      O    24      Px                   0.774     0.777    -0.003
      O    24      Py                   0.805     0.808    -0.003
      O    24      Pz                   0.813     0.814    -0.001
      O    25      S                    0.929     0.926     0.003
      O    25      Px                   0.794     0.794    -0.000
      O    25      Py                   0.804     0.802     0.002
      O    25      Pz                   0.818     0.817     0.001
      O    26      S                    0.929     0.926     0.003
      O    26      Px                   0.777     0.775     0.001
      O    26      Py                   0.821     0.821    -0.000
      O    26      Pz                   0.818     0.817     0.001
      O    27      S                    0.938     0.938    -0.000
      O    27      Px                   0.756     0.756    -0.000
      O    27      Py                   0.805     0.805    -0.000
      O    27      Pz                   0.814     0.814     0.000
      O    28      S                    0.938     0.938    -0.000
      O    28      Px                   0.802     0.802     0.001
      O    28      Py                   0.758     0.759    -0.001
      O    28      Pz                   0.814     0.814     0.000
      O    29      S                    0.938     0.934     0.004
      O    29      Px                   0.809     0.820    -0.011
      O    29      Py                   0.806     0.816    -0.011
      O    29      Pz                   0.750     0.754    -0.004
      O    30      S                    0.938     0.934     0.004
      O    30      Px                   0.811     0.816    -0.005
      O    30      Py                   0.803     0.820    -0.017
      O    30      Pz                   0.750     0.754    -0.004
      O    31      S                    0.941     0.934     0.007
      O    31      Px                   0.780     0.788    -0.009
      O    31      Py                   0.784     0.785    -0.001
      O    31      Pz                   0.790     0.808    -0.018
      O    32      S                    0.941     0.934     0.007
      O    32      Px                   0.806     0.808    -0.002
      O    32      Py                   0.758     0.766    -0.008
      O    32      Pz                   0.790     0.808    -0.018
      O    33      S                    0.934     0.924     0.010
      O    33      Px                   0.830     0.820     0.010
      O    33      Py                   0.786     0.764     0.021
      O    33      Pz                   0.829     0.799     0.031
      O    34      S                    0.934     0.924     0.010
      O    34      Px                   0.811     0.789     0.022
      O    34      Py                   0.805     0.795     0.009
      O    34      Pz                   0.829     0.799     0.031
      O    35      S                    0.940     0.931     0.008
      O    35      Px                   0.816     0.779     0.037
      O    35      Py                   0.855     0.830     0.025
      O    35      Pz                   0.784     0.768     0.016
      O    36      S                    0.940     0.931     0.008
      O    36      Px                   0.823     0.814     0.008
      O    36      Py                   0.848     0.795     0.054
      O    36      Pz                   0.784     0.768     0.016
      O    37      S                    0.937     0.934     0.002
      O    37      Px                   0.812     0.822    -0.010
      O    37      Py                   0.837     0.835     0.002
      O    37      Pz                   0.765     0.768    -0.003
      O    38      S                    0.937     0.934     0.002
      O    38      Px                   0.826     0.826    -0.000
      O    38      Py                   0.823     0.831    -0.008
      O    38      Pz                   0.765     0.768    -0.003
      O    39      S                    0.939     0.935     0.005
      O    39      Px                   0.751     0.762    -0.010
      O    39      Py                   0.820     0.822    -0.002
      O    39      Pz                   0.821     0.823    -0.002
      O    40      S                    0.939     0.935     0.005
      O    40      Px                   0.808     0.816    -0.008
      O    40      Py                   0.764     0.768    -0.004
      O    40      Pz                   0.821     0.823    -0.002
      O    41      S                    0.940     0.934     0.006
      O    41      Px                   0.782     0.745     0.037
      O    41      Py                   0.829     0.812     0.017
      O    41      Pz                   0.828     0.806     0.022
      O    42      S                    0.940     0.934     0.006
      O    42      Px                   0.832     0.797     0.035
      O    42      Py                   0.779     0.760     0.019
      O    42      Pz                   0.828     0.806     0.022
      V     1      S                    0.995     0.995    -0.000
      V     1      Px                   0.994     0.994    -0.000
      V     1      Py                   0.995     0.995     0.000
      V     1      Pz                   0.995     0.995    -0.000
      V     1      Dzz                  0.368     0.331     0.037
      V     1      Dzy                  0.320     0.293     0.027
      V     1      Dzx                  0.338     0.299     0.039
      V     1      Dxx-yy               0.325     0.311     0.014
      V     1      Dxy                  0.321     0.286     0.035
      V     1      S                    0.109     0.105     0.004
      V     1      Px                   0.091     0.088     0.003
      V     1      Py                   0.105     0.102     0.003
      V     1      Pz                   0.075     0.072     0.003
      V     2      S                    0.995     0.995    -0.000
      V     2      Px                   0.995     0.995    -0.000
      V     2      Py                   0.994     0.994     0.000
      V     2      Pz                   0.995     0.995    -0.000
      V     2      Dzz                  0.368     0.331     0.037
      V     2      Dzy                  0.339     0.293     0.047
      V     2      Dzx                  0.319     0.300     0.019
      V     2      Dxx-yy               0.314     0.295     0.019
      V     2      Dxy                  0.332     0.301     0.030
      V     2      S                    0.109     0.105     0.004
      V     2      Px                   0.101     0.100     0.001
      V     2      Py                   0.095     0.090     0.005
      V     2      Pz                   0.075     0.072     0.003
      V     3      S                    0.995     0.995    -0.000
      V     3      Px                   0.996     0.996    -0.000
      V     3      Py                   0.995     0.995     0.000
      V     3      Pz                   0.996     0.996    -0.000
      V     3      Dzz                  0.297     0.263     0.034
      V     3      Dzy                  0.360     0.329     0.031
      V     3      Dzx                  0.326     0.313     0.012
      V     3      Dxx-yy               0.330     0.319     0.012
      V     3      Dxy                  0.314     0.274     0.040
      V     3      S                    0.127     0.127    -0.000
      V     3      Px                   0.092     0.094    -0.002
      V     3      Py                   0.072     0.074    -0.002
      V     3      Pz                   0.079     0.081    -0.002
      V     4      S                    0.995     0.995    -0.000
      V     4      Px                   0.996     0.996    -0.000
      V     4      Py                   0.995     0.995    -0.000
      V     4      Pz                   0.996     0.996    -0.000
      V     4      Dzz                  0.297     0.263     0.034
      V     4      Dzy                  0.336     0.312     0.025
      V     4      Dzx                  0.350     0.331     0.019
      V     4      Dxx-yy               0.305     0.272     0.033
      V     4      Dxy                  0.340     0.321     0.019
      V     4      S                    0.127     0.127    -0.000
      V     4      Px                   0.073     0.076    -0.003
      V     4      Py                   0.091     0.092    -0.001
      V     4      Pz                   0.079     0.081    -0.002
      V     5      S                    0.995     0.995    -0.000
      V     5      Px                   0.995     0.995    -0.000
      V     5      Py                   0.995     0.995    -0.000
      V     5      Pz                   0.995     0.995    -0.000
      V     5      Dzz                  0.352     0.318     0.035
      V     5      Dzy                  0.322     0.297     0.025
      V     5      Dzx                  0.318     0.310     0.009
      V     5      Dxx-yy               0.333     0.310     0.023
      V     5      Dxy                  0.346     0.294     0.053
      V     5      S                    0.106     0.103     0.003
      V     5      Px                   0.089     0.088     0.001
      V     5      Py                   0.080     0.080    -0.001
      V     5      Pz                   0.090     0.086     0.004
      V     6      S                    0.995     0.995    -0.000
      V     6      Px                   0.995     0.995    -0.000
      V     6      Py                   0.995     0.995    -0.000
      V     6      Pz                   0.995     0.995    -0.000
      V     6      Dzz                  0.352     0.318     0.035
      V     6      Dzy                  0.327     0.324     0.003
      V     6      Dzx                  0.313     0.282     0.031
      V     6      Dxx-yy               0.345     0.308     0.036
      V     6      Dxy                  0.334     0.295     0.039
      V     6      S                    0.106     0.103     0.003
      V     6      Px                   0.077     0.078    -0.001
      V     6      Py                   0.091     0.090     0.001
      V     6      Pz                   0.090     0.086     0.004
      V     7      S                    0.996     0.996    -0.000
      V     7      Px                   0.996     0.996    -0.000
      V     7      Py                   0.995     0.995    -0.000
      V     7      Pz                   0.996     0.996    -0.000
      V     7      Dzz                  0.328     0.274     0.054
      V     7      Dzy                  0.332     0.300     0.032
      V     7      Dzx                  0.331     0.316     0.015
      V     7      Dxx-yy               0.315     0.288     0.027
      V     7      Dxy                  0.339     0.316     0.023
      V     7      S                    0.121     0.120     0.001
      V     7      Px                   0.068     0.071    -0.003
      V     7      Py                   0.096     0.094     0.002
      V     7      Pz                   0.081     0.079     0.002
      V     8      S                    0.996     0.996    -0.000
      V     8      Px                   0.995     0.995    -0.000
      V     8      Py                   0.995     0.995    -0.000
      V     8      Pz                   0.996     0.996    -0.000
      V     8      Dzz                  0.328     0.275     0.054
      V     8      Dzy                  0.346     0.309     0.037
      V     8      Dzx                  0.317     0.306     0.011
      V     8      Dxx-yy               0.328     0.325     0.003
      V     8      Dxy                  0.326     0.279     0.047
      V     8      S                    0.121     0.120     0.001
[...]
             Li 6  -- O 28                   0.16         0.00          1.99979
             Li 9  -- O 33                   0.17         0.01          2.00062
             Li 10 -- O 34                   0.17         0.01          2.00062
             Li 9  -- O 38                   0.17         0.00          2.01138
             Li 10 -- O 37                   0.17         0.00          2.01139
              O 39 -- Fe 1                   0.26        -0.02          2.01366
              O 40 -- Fe 2                   0.26        -0.02          2.01368
              O 9  -- Fe 1                   0.23        -0.02          2.01371
              O 10 -- Fe 2                   0.23        -0.02          2.01371
             Li 7  -- O 5                    0.21         0.00          2.01616
             Li 8  -- O 6                    0.21         0.00          2.01617
              O 36 -- Fe 4                   0.22        -0.04          2.01887
              O 35 -- Fe 3                   0.22        -0.04          2.01896
             Li 8  -- O 41                   0.23         0.00          2.03404
             Li 7  -- O 42                   0.23         0.00          2.03405
              O 1  -- Fe 3                   0.31        -0.04          2.03570
              O 2  -- Fe 4                   0.31        -0.04          2.03572
             Li 4  -- O 4                    0.15         0.00          2.03783
             Li 3  -- O 3                    0.15         0.00          2.03784
              O 18 -- Fe 2                   0.14        -0.03          2.04571
              O 17 -- Fe 1                   0.14        -0.03          2.04577
              O 3  -- Fe 6                   0.25        -0.02          2.05566
              O 4  -- Fe 5                   0.25        -0.02          2.05567
              O 17 -- V 3                    0.29        -0.00          2.05948
              O 18 -- V 4                    0.29        -0.00          2.05948
             Li 4  -- O 8                    0.16         0.00          2.06195
             Li 3  -- O 7                    0.16         0.00          2.06195
             Li 5  -- O 29                   0.17         0.00          2.06968
             Li 6  -- O 30                   0.17         0.00          2.06968
             Li 9  -- O 15                   0.20         0.00          2.07195
             Li 10 -- O 16                   0.20         0.00          2.07198
             Li 4  -- O 39                   0.12         0.00          2.07660
             Li 3  -- O 40                   0.12         0.00          2.07662
             Li 9  -- O 9                    0.08         0.00          2.07939
             Li 10 -- O 10                   0.08         0.00          2.07940
              O 16 -- Fe 2                   0.16        -0.03          2.08961
              O 15 -- Fe 1                   0.16        -0.03          2.08966
              O 42 -- Fe 4                   0.21        -0.04          2.10017
              O 41 -- Fe 3                   0.21        -0.04          2.10018
             Li 5  -- O 1                    0.12         0.00          2.10503
             Li 6  -- O 2                    0.12         0.00          2.10504
              O 7  -- Fe 4                   0.29        -0.04          2.10750
              O 8  -- Fe 3                   0.29        -0.04          2.10751
             Li 1  -- O 13                   0.09        -0.00          2.10984
             Li 2  -- O 14                   0.09        -0.00          2.10984
             Li 1  -- O 37                   0.14         0.00          2.11120
             Li 2  -- O 38                   0.14         0.00          2.11120
              O 30 -- Fe 2                   0.24        -0.02          2.11554
              O 29 -- Fe 1                   0.24        -0.02          2.11556
              O 5  -- Fe 6                   0.26        -0.01          2.11620
              O 6  -- Fe 5                   0.26        -0.01          2.11621
             Li 8  -- O 20                   0.18         0.00          2.13327
             Li 7  -- O 19                   0.18         0.00          2.13328
              O 36 -- V 8                    0.21        -0.00          2.15815
              O 35 -- V 7                    0.21        -0.00          2.15817
             Li 7  -- O 9                    0.13         0.00          2.16771
             Li 8  -- O 10                   0.13         0.00          2.16771
              O 21 -- Fe 5                   0.23        -0.01          2.18751
              O 22 -- Fe 6                   0.23        -0.01          2.18751
              O 38 -- Fe 6                   0.18        -0.02          2.19261
              O 37 -- Fe 5                   0.18        -0.02          2.19263
             Li 3  -- O 36                   0.07         0.00          2.20640
             Li 4  -- O 35                   0.07         0.00          2.20641
             Li 6  -- O 18                   0.07         0.00          2.21876
             Li 5  -- O 17                   0.07         0.00          2.21877
              O 15 -- Fe 6                   0.17        -0.02          2.22630
              O 16 -- Fe 5                   0.17        -0.02          2.22631
              O 26 -- Fe 5                   0.14        -0.02          2.23244
              O 25 -- Fe 6                   0.14        -0.02          2.23246
             Li 1  -- O 41                   0.01        -0.00          2.30758
             Li 2  -- O 42                   0.01        -0.00          2.30759
             Li 3  -- O 22                   0.01         0.00          2.40633
             Li 4  -- O 21                   0.01         0.00          2.40634
             Li 2  -- O 19                   0.06         0.00          2.46584
             Li 1  -- O 20                   0.06         0.00          2.46585
              O 17 -- O 35                  -0.06         0.00          2.49163
              O 18 -- O 36                  -0.06         0.00          2.49172
             Li 6  -- O 20                  -0.02        -0.00          2.54326
             Li 5  -- O 19                  -0.02        -0.00          2.54326
             Li 7  -- O 33                  -0.02         0.00          2.56360
             Li 8  -- O 34                  -0.02         0.00          2.56361
              O 16 -- O 18                  -0.05        -0.00          2.59650
              O 15 -- O 17                  -0.05        -0.00          2.59654
              O 36 -- O 42                  -0.05        -0.00          2.60344
              O 35 -- O 41                  -0.05        -0.00          2.60347
              O 15 -- O 25                  -0.04        -0.00          2.63570
              O 16 -- O 26                  -0.04        -0.00          2.63571
              O 13 -- O 41                  -0.03        -0.00          2.66813
              O 14 -- O 42                  -0.03        -0.00          2.66814
             Li 2  -- Li 7                  -0.18        -0.00          2.68589
             Li 1  -- Li 8                  -0.18        -0.00          2.68591
              O 18 -- O 30                  -0.04        -0.00          2.69458
              O 17 -- O 29                  -0.04        -0.00          2.69461
             Li 2  -- O 5                   -0.03        -0.00          2.70354
             Li 1  -- O 6                   -0.03        -0.00          2.70357
              O 19 -- O 25                  -0.02         0.00          2.72402
              O 20 -- O 26                  -0.02         0.00          2.72403
              O 7  -- O 36                  -0.04        -0.00          2.72818
              O 8  -- O 35                  -0.04        -0.00          2.72820
             Li 9  -- Fe 6                  -0.10        -0.02          2.73071
             Li 10 -- Fe 5                  -0.10        -0.02          2.73071
             Li 9  -- O 7                   -0.08        -0.00          2.73549
             Li 10 -- O 8                   -0.08        -0.00          2.73550
              O 30 -- O 34                  -0.01        -0.00          2.74232
              O 29 -- O 33                  -0.01        -0.00          2.74233
              O 7  -- O 9                   -0.01        -0.00          2.74752
              O 8  -- O 10                  -0.01        -0.00          2.74754
              O 13 -- O 21                  -0.01         0.00          2.77861
              O 14 -- O 22                  -0.01         0.00          2.77863
              O 1  -- O 34                  -0.03        -0.00          2.78227
              O 2  -- O 33                  -0.03        -0.00          2.78228
              O 10 -- O 40                  -0.03        -0.00          2.78583
              O 9  -- O 39                  -0.03        -0.00          2.78585
              O 9  -- O 33                  -0.03        -0.00          2.78783
              O 10 -- O 34                  -0.03        -0.00          2.78785
              O 13 -- O 17                  -0.02        -0.00          2.78881
              O 14 -- O 18                  -0.02        -0.00          2.78883
              O 21 -- O 35                  -0.02         0.00          2.78993
              O 22 -- O 36                  -0.02         0.00          2.78996
              O 25 -- O 35                  -0.02        -0.00          2.80857
              O 26 -- O 36                  -0.02        -0.00          2.80857
              O 2  -- O 32                   0.00        -0.00          2.81564
              O 1  -- O 31                   0.00        -0.00          2.81566
              O 12 -- O 36                  -0.03        -0.00          2.81627
              O 11 -- O 35                  -0.03        -0.00          2.81630
              O 16 -- O 30                  -0.03        -0.00          2.81728
              O 15 -- O 29                  -0.03        -0.00          2.81730
              O 8  -- O 28                   0.00         0.00          2.81859
              O 7  -- O 27                   0.00         0.00          2.81859
              O 17 -- O 19                  -0.02         0.00          2.82119
              O 18 -- O 20                  -0.02         0.00          2.82121
              O 10 -- O 28                   0.00        -0.00          2.82278
              O 9  -- O 27                   0.00        -0.00          2.82278
              O 1  -- O 23                  -0.01        -0.00          2.82339
              O 2  -- O 24                  -0.01        -0.00          2.82341
              O 18 -- O 32                  -0.03        -0.00          2.83177
              O 17 -- O 31                  -0.03        -0.00          2.83178
              O 12 -- O 40                   0.00         0.00          2.83242
              O 11 -- O 39                   0.00         0.00          2.83242
             Li 9  -- V 11                  -0.27        -0.01          2.83400
             Li 10 -- V 12                  -0.27        -0.01          2.83401
              O 24 -- O 40                  -0.01         0.00          2.83822
              O 23 -- O 39                  -0.01         0.00          2.83823
              O 4  -- O 34                   0.00        -0.00          2.83971
              O 3  -- O 33                   0.00        -0.00          2.83973
             Li 10 -- Fe 2                  -0.10        -0.02          2.84230
             Li 9  -- Fe 1                  -0.10        -0.02          2.84231
              O 6  -- O 12                   0.00         0.00          2.84446
              O 5  -- O 11                   0.00         0.00          2.84448
              O 6  -- O 24                  -0.00         0.00          2.84966
              O 5  -- O 23                  -0.00         0.00          2.84969
              O 1  -- O 11                  -0.02        -0.00          2.85016
              O 2  -- O 12                  -0.02        -0.00          2.85018
              O 23 -- O 37                  -0.00        -0.00          2.85349
              O 24 -- O 38                  -0.00        -0.00          2.85349
              O 30 -- O 40                  -0.03        -0.00          2.85507
              O 29 -- O 39                  -0.03        -0.00          2.85507
              O 24 -- O 32                  -0.00         0.00          2.85781
              O 23 -- O 31                  -0.00         0.00          2.85783
              O 31 -- O 39                  -0.02        -0.00          2.86213
              O 32 -- O 40                  -0.02        -0.00          2.86215
              O 7  -- O 42                  -0.03        -0.00          2.86515
              O 8  -- O 41                  -0.03        -0.00          2.86516
              O 12 -- O 24                  -0.00         0.00          2.86711
              O 11 -- O 23                  -0.00         0.00          2.86714
              O 26 -- O 28                  -0.00         0.00          2.86910
              O 25 -- O 27                  -0.00         0.00          2.86911
              O 19 -- O 35                   0.00         0.00          2.86990
              O 20 -- O 36                   0.00         0.00          2.86995
              O 4  -- O 30                   0.00        -0.00          2.87040
              O 3  -- O 29                   0.00        -0.00          2.87040
             Li 10 -- O 21                  -0.02        -0.00          2.87235
             Li 9  -- O 22                  -0.02        -0.00          2.87236
              O 13 -- O 34                  -0.00         0.00          2.87509
              O 14 -- O 33                  -0.00         0.00          2.87509
              O 6  -- O 40                   0.00        -0.00          2.87723
              O 5  -- O 39                   0.00        -0.00          2.87725
              O 1  -- O 8                   -0.03        -0.00          2.87825
              O 2  -- O 7                   -0.03        -0.00          2.87826
              O 32 -- O 38                  -0.00         0.00          2.87937
              O 31 -- O 37                  -0.00         0.00          2.87937
              O 4  -- O 13                  -0.00         0.00          2.88345
              O 3  -- O 14                  -0.00         0.00          2.88345
              O 34 -- O 41                  -0.03        -0.00          2.88537
              O 33 -- O 42                  -0.03        -0.00          2.88537
              O 2  -- O 38                   0.00        -0.00          2.89050
              O 1  -- O 37                   0.00        -0.00          2.89050
              O 21 -- O 41                   0.01        -0.00          2.89527
              O 22 -- O 42                   0.01        -0.00          2.89528
              O 10 -- O 16                  -0.02        -0.00          2.90069
              O 9  -- O 15                  -0.02        -0.00          2.90070
              O 22 -- O 38                  -0.03        -0.00          2.91229
              O 21 -- O 37                  -0.03        -0.00          2.91230
              O 3  -- O 22                  -0.02        -0.00          2.91258
              O 4  -- O 21                  -0.02        -0.00          2.91259
              O 4  -- O 26                  -0.03        -0.00          2.91807
              O 3  -- O 25                  -0.03        -0.00          2.91807
              O 14 -- O 29                  -0.00         0.00          2.92240
              O 13 -- O 30                  -0.00         0.00          2.92240
              O 5  -- O 38                  -0.02        -0.00          2.92371
              O 6  -- O 37                  -0.02        -0.00          2.92373
              O 9  -- O 25                  -0.00         0.00          2.92456
              O 10 -- O 26                  -0.00         0.00          2.92456
              O 5  -- O 29                  -0.02         0.00          2.92560
              O 6  -- O 30                  -0.02         0.00          2.92561
             Li 10 -- V 2                   -0.26        -0.01          2.92722
             Li 9  -- V 1                   -0.26        -0.01          2.92724
             Li 3  -- O 24                  -0.03         0.00          2.93873
             Li 4  -- O 23                  -0.03         0.00          2.93874
              O 7  -- O 33                  -0.02        -0.00          2.93991
              O 8  -- O 34                  -0.02        -0.00          2.93993
              O 11 -- O 34                  -0.02        -0.00          2.94185
              O 12 -- O 33                  -0.02        -0.00          2.94187
              O 27 -- O 29                  -0.02         0.00          2.94542
              O 28 -- O 30                  -0.02         0.00          2.94543
             Li 8  -- V 12                  -0.22        -0.01          2.95000
             Li 7  -- V 11                  -0.22        -0.01          2.95001
             Li 5  -- O 23                  -0.03        -0.00          2.95116
             Li 6  -- O 24                  -0.03        -0.00          2.95118
              O 3  -- O 5                   -0.02        -0.00          2.95384
              O 4  -- O 6                   -0.02        -0.00          2.95386
              O 17 -- O 21                   0.00         0.00          2.95732
              O 18 -- O 22                   0.00         0.00          2.95735
              O 21 -- O 26                  -0.02        -0.00          2.95890
              O 22 -- O 25                  -0.02        -0.00          2.95892
              O 20 -- O 41                  -0.02        -0.00          2.96532
              O 19 -- O 42                  -0.02        -0.00          2.96534
              O 7  -- O 25                  -0.00         0.00          2.96728
              O 8  -- O 26                  -0.00         0.00          2.96728
              O 8  -- O 37                  -0.02         0.00          2.97192
              O 7  -- O 38                  -0.02         0.00          2.97194
              O 15 -- O 19                   0.01         0.00          2.97460
              O 16 -- O 20                   0.01         0.00          2.97460
              O 11 -- O 25                  -0.01         0.00          2.97831
              O 12 -- O 26                  -0.01         0.00          2.97833
             Li 7  -- V 9                   -0.21        -0.01          2.98333
             Li 8  -- V 10                  -0.21        -0.01          2.98335
              O 4  -- O 8                   -0.02        -0.00          2.98367
              O 3  -- O 7                   -0.02        -0.00          2.98367
              O 10 -- O 32                  -0.02        -0.00          2.99453
              O 9  -- O 31                  -0.02        -0.00          2.99454
              O 10 -- O 30                  -0.02        -0.00          2.99870
              O 9  -- O 29                  -0.02        -0.00          2.99872
================================================================================


Writing analysis data to ml_dos.castep_bin

Writing model to ml_dos.check
 
 A BibTeX formatted list of references used in this run has been written to 
 ml_dos.bib
 
Initialisation time =     13.65 s
Calculation time    =  28541.75 s
Finalisation time   =      7.18 s
Total time          =  28562.58 s
Peak Memory Use     = 5984868 kB
 
Overall parallel efficiency rating: Mediocre (52%)
 
Data was distributed by:-
G-vector (40-way); efficiency rating: Mediocre (52%)
