 +-------------------------------------------------+
 |                                                 |
 |      CCC   AA    SSS  TTTTT  EEEEE  PPPP        |
 |     C     A  A  S       T    E      P   P       |
 |     C     AAAA   SS     T    EEE    PPPP        |
 |     C     A  A     S    T    E      P           |
 |      CCC  A  A  SSS     T    EEEEE  P           |
 |                                                 |
 +-------------------------------------------------+
 |                                                 |
 | Welcome to Academic Release CASTEP version 25.12|
 | Ab Initio Total Energy Program                  |
 |                                                 |
 | Authors:                                        |
 | M. Segall, M. Probert, C. Pickard, P. Hasnip,   |
 | S. Clark, K. Refson, J. R. Yates,               |
 | A. Bartok-Partay, M. Payne                      |
 |                                                 |
 | Contributors:                                   |
 | P. Lindan, P. Haynes, J. White, V. Milman,      |
 | N. Govind, M. Gibson, P. Tulip, V. Cocula,      |
 | B. Montanari, D. Quigley, M. Glover,            |
 | L. Bernasconi, A. Perlov, M. Plummer,           |
 | E. McNellis, J. Meyer, J. Gale, D. Jochym       |
 | J. Aarons, B. Walker, R. Gillen, D. Jones       |
 | T. Green, I. J. Bush, C. J. Armstrong,          |
 | E. J. Higgins, E. L. Brown, M. S. McFly,        |
 | J. Wilkins, B-C. Shih, P. J. P. Byrne,          |
 | R. J. Maurer, J. C. Womack, J. Dziedzic,        |
 | L. LeBlanc, T. K. Stenczel, J. Kermode,         |
 | S. Sturniolo, B. Shi, B. Durham, M. Evans,      |
 | M. J. Smith, A. Tamerus, Z. Hawkhead,           |
 | V. Ravindran, T. Hollins, S. A. Joyce,          |
 | R. T. Strong, A. M. Reilly, S. J. Donaldson,    |
 | J. C. A. Prentice                               |
 |                                                 |
 | Copyright (c) 2000 - 2024                       |
 |                                                 |
 |     Distributed under license from Cambridge    |
 |     Enterprise for academic use only.           |
 |                                                 |
 | Please cite                                     |
 |                                                 |
 |     "First principles methods using CASTEP"     |
 |                                                 |
 |         Zeitschrift fuer Kristallographie       |
 |           220(5-6) pp. 567-570 (2005)           |
 |                                                 |
 | S. J. Clark, M. D. Segall, C. J. Pickard,       |
 | P. J. Hasnip, M. J. Probert, K. Refson,         |
 | M. C. Payne                                     |
 |                                                 |
 |       in all publications arising from          |
 |              your use of CASTEP                 |
 |                                                 |
 +-------------------------------------------------+
 |                                                 |
 |              http://www.castep.org              |
 |                                                 |
 +-------------------------------------------------+



 Compiled for linux_x86_64_gfortran10 on Sun, 13 Jul 2025 14:49:40 -0400
 from code version git version unavailable
 Compiler: GNU Fortran 13.3.0; Optimisation: fast
 Comms   : Open MPI v5.0.3
 MATHLIBS: flexiblas (IMKL) (LAPACK version 3.12.0)
 FFT Lib : fftw3 version fftw-3.3.10-sse2-avx-avx2-avx2_128
 Fundamental constants values: CODATA 2018

 Run started: Sun, 21 Dec 2025 22:13:36 -0500
 Warning in parameters_read: presetting of magnetic moments on atoms cannot be guaranteed when metals_method /= density mixing

 Atomic calculation performed for Li: 1s2 2s1

 Converged in 47 iterations to an ae energy of -202.784 eV

   ============================================================                
   | Pseudopotential Report - Date of generation 21-12-2025   |                
   ------------------------------------------------------------                
   | Element: Li Ionic charge:  3.00 Level of theory: PBE     |                
   | Atomic Solver: Koelling-Harmon                           |                
   |                                                          |                
   |               Reference Electronic Structure             |                
   |         Orbital         Occupation         Energy        |                
   |            1s              2.000           -1.906        |                
   |            2s              1.000           -0.106        |                
   |                                                          |                
   |                 Pseudopotential Definition               |                
   |        Beta     l      e      Rc     scheme   norm       |                
   |          1      0   -1.906   1.001     qc      0         |                
   |          2      0   -0.106   1.001     qc      0         |                
   |          3      0    0.250   1.001     qc      0         |                
   |         loc     1    0.000   1.001     pn      0         |                
   |                                                          |                
   | Augmentation charge Rinner = 0.699                       |                
   | No partial core correction                               |                
   ------------------------------------------------------------                
   | "1|1.0|14|16|18|10U:20(qc=7)"                            |                
   ------------------------------------------------------------                
   |      Author: Chris J. Pickard, Cambridge University      |                
   ============================================================                

 Atomic calculation performed for O: 1s2 2s2 2p4

 Converged in 61 iterations to an ae energy of -2040.902 eV

   ============================================================                
   | Pseudopotential Report - Date of generation 21-12-2025   |                
   ------------------------------------------------------------                
   | Element: O Ionic charge:  6.00 Level of theory: PBE      |                
   | Atomic Solver: Koelling-Harmon                           |                
   |                                                          |                
   |               Reference Electronic Structure             |                
   |         Orbital         Occupation         Energy        |                
   |            2s              2.000           -0.881        |                
   |            2p              4.000           -0.332        |                
   |                                                          |                
   |                 Pseudopotential Definition               |                
   |        Beta     l      e      Rc     scheme   norm       |                
   |          1      0   -0.881   1.100     qc      0         |                
   |          2      0    0.250   1.100     qc      0         |                
   |          3      1   -0.332   1.100     qc      0         |                
   |          4      1    0.250   1.100     qc      0         |                
   |         loc     2    0.000   1.100     pn      0         |                
   |                                                          |                
   | Augmentation charge Rinner = 0.769                       |                
   | Partial core correction Rc = 0.769                       |                
   ------------------------------------------------------------                
   | "2|1.1|17|20|23|20:21(qc=8)"                             |                
   ------------------------------------------------------------                
   |      Author: Chris J. Pickard, Cambridge University      |                
   ============================================================                

 Atomic calculation performed for V: 1s2 2s2 2p6 3s2 3p6 3d3 4s2

 Converged in 81 iterations to an ae energy of -25823.733 eV

   ============================================================                
   | Pseudopotential Report - Date of generation 21-12-2025   |                
   ------------------------------------------------------------                
   | Element: V Ionic charge: 13.00 Level of theory: PBE      |                
   | Atomic Solver: Koelling-Harmon                           |                
   |                                                          |                
   |               Reference Electronic Structure             |                
   |         Orbital         Occupation         Energy        |                
   |            3s              2.000           -2.581        |                
   |            3p              6.000           -1.618        |                
   |            3d              3.000           -0.190        |                
   |            4s              2.000           -0.173        |                
   |                                                          |                
   |                 Pseudopotential Definition               |                
   |        Beta     l      e      Rc     scheme   norm       |                
   |          1      0   -2.581   1.803     qc      0         |                
   |          2      0   -0.173   1.803     qc      0         |                
   |          3      0    0.250   1.803     qc      0         |                
   |          4      1   -1.618   1.803     qc      0         |                
   |          5      1    0.250   1.803     qc      0         |                
   |          6      2   -0.190   1.803     qc      0         |                
   |          7      2    0.250   1.803     qc      0         |                
   |         loc     3    0.000   1.803     pn      0         |                
   |                                                          |                
   | Augmentation charge Rinner = 0.600                       |                
   | Partial core correction Rc = 0.600                       |                
   ------------------------------------------------------------                
   | "3|1.8|1.8|0.6|12|14|16|30U:40:31:32(qc=7)"              |                
   ------------------------------------------------------------                
   |      Author: Chris J. Pickard, Cambridge University      |                
   ============================================================                

 Atomic calculation performed for Fe: 1s2 2s2 2p6 3s2 3p6 3d6 4s2

 Converged in 96 iterations to an ae energy of -34625.102 eV

   ============================================================                
   | Pseudopotential Report - Date of generation 21-12-2025   |                
   ------------------------------------------------------------                
   | Element: Fe Ionic charge:  8.00 Level of theory: PBE     |                
   | Atomic Solver: Koelling-Harmon                           |                
   |                                                          |                
   |               Reference Electronic Structure             |                
   |         Orbital         Occupation         Energy        |                
   |            3d              6.000           -0.276        |                
   |            4s              2.000           -0.194        |                
   |                                                          |                
   |                 Pseudopotential Definition               |                
   |        Beta     l      e      Rc     scheme   norm       |                
   |          1      0   -0.194   2.399     qc      0         |                
   |          2      0    0.250   2.399     qc      0         |                
   |          3      1    0.000   2.399     qc      0         |                
   |          4      1    0.250   2.399     qc      0         |                
   |          5      2   -0.276   1.997     qc      0         |                
   |          6      2    0.250   1.997     qc      0         |                
   |         loc     3    0.000   2.399     pn      0         |                
   |                                                          |                
   | Augmentation charge Rinner = 1.000                       |                
   | Partial core correction Rc = 1.000                       |                
   ------------------------------------------------------------                
   | "3|2.4|2.4|1.0|8|9|10|40:41:32U2U2(qc=5.5)"              |                
   ------------------------------------------------------------                
   |      Author: Chris J. Pickard, Cambridge University      |                
   ============================================================                

 Pseudo atomic calculation performed for Li 1s2 2s1

 Converged in 18 iterations to a total energy of -200.5098 eV

 Pseudo atomic calculation performed for O 2s2 2p4

 Converged in 24 iterations to a total energy of -432.3399 eV

 Pseudo atomic calculation performed for V 3s2 3p6 3d3 4s2

 Converged in 36 iterations to a total energy of -2065.8041 eV

 Pseudo atomic calculation performed for Fe 3d6 4s2

 Converged in 34 iterations to a total energy of -853.8318 eV
 Calculation parallelised over 40 processes.
 Data is distributed by G-vector(40-way)

 ************************************ Title ************************************
 

 ***************************** General Parameters ******************************
  
 output verbosity                               : normal  (1)
 write checkpoint data to                       : ml_dos.check
 type of calculation                            : Electronic Spectroscopy
 stress calculation                             : off
 density difference calculation                 : off
 electron localisation func (ELF) calculation   : off
 Hirshfeld analysis                             : off
 polarisation (Berry phase) analysis            : off
 molecular orbital projected DOS                : off
 deltaSCF calculation                           : off
 unlimited duration calculation
 timing information                             : on
 memory usage estimate                          : on
 write extra output files                       : on
 write final potential to formatted file        : off
 write final density to formatted file          : off
 write BibTeX reference list                    : on
 write OTFG pseudopotential files               : on
 write electrostatic potential file             : on
 write bands file                               : on
 checkpoint writing                             : both castep_bin and check files
  
 output         length unit                     : A
 output           mass unit                     : amu
 output           time unit                     : ps
 output         charge unit                     : e
 output           spin unit                     : hbar/2
 output         energy unit                     : eV
 output          force unit                     : eV/A
 output       velocity unit                     : A/ps
 output       pressure unit                     : GPa
 output     inv_length unit                     : 1/A
 output      frequency unit                     : cm-1
 output force constant unit                     : eV/A**2
 output         volume unit                     : A**3
 output   IR intensity unit                     : (D/A)**2/amu
 output         dipole unit                     : D
 output         efield unit                     : eV/A/e
 output        entropy unit                     : J/mol/K
 output    efield chi2 unit                     : pm/V
  
 wavefunctions paging                           : none
 random number generator seed                   :  221336547
 data distribution                              : optimal for this architecture
 optimization strategy                          : balance speed and memory

 *********************** Exchange-Correlation Parameters ***********************
  
 using functional                               : Perdew Burke Ernzerhof
 relativistic treatment                         : Koelling-Harmon
 DFT+D: Semi-empirical dispersion correction    : off

 ************************* Pseudopotential Parameters **************************
  
 pseudopotential representation                 : reciprocal space
 <beta|phi> representation                      : reciprocal space
 spin-orbit coupling                            : off

 **************************** Basis Set Parameters *****************************
  
 plane wave basis set cut-off                   :   900.0000   eV
 size of standard grid                          :     2.0000
 size of   fine   gmax                          :    30.7390   1/A
 finite basis set correction                    : none

 **************************** Electronic Parameters ****************************
  
 number of  electrons                           :  474.0    
 net charge of system                           :  0.000    
 net spin   of system                           :  30.00    
 number of  up  spins                           :  252.0    
 number of down spins                           :  222.0    
 treating system as spin-polarized
 number of bands                                :        302
 electron temperature                           :     0.0000   K

 ********************* Electronic Minimization Parameters **********************
  
 Method: Treating system as metallic with ensemble DFT treatment of electrons,
         and number of  SD  steps               :          1
         and number of  CG  steps               :          4
  
 total energy / atom convergence tol.           : 0.1000E-05   eV
 max force / atom convergence tol.              : ignored
 convergence tolerance window                   :          3   cycles
 max. number of SCF cycles                      :        100
 number of fixed-spin iterations                :         10
 smearing scheme                                : Gaussian
 smearing width                                 : 0.2000       eV
 Fermi energy convergence tolerance             : 0.2721E-13   eV
 number of occupancy cycles                     :          6
 periodic dipole correction                     : NONE

 *********************** Population Analysis Parameters ************************
  
 Population analysis with cutoff                :  3.000       A
 Population analysis output                     : summary and pdos components
 Partial DOS weights calculated

 ********************* Electronic Spectroscopy Parameters **********************
  
 electronic spectroscopy with theory level      : DFT       
 spectroscopy calculation                       : density of states
 max. number of iterations                      :         60
 max. steps per iteration                       :          5
 number of bands / k-point                      :        389
 band convergence tolerance                     : 0.1000E-05   eV
 write orbitals file                            : off

 *******************************************************************************
  

                           -------------------------------
                                      Unit Cell
                           -------------------------------
        Real Lattice(A)                      Reciprocal Lattice(1/A)
     8.1107850     0.0000000     0.0000000        0.774670430  -0.393733757   0.055121316
     3.6749580     7.2304730     0.0000000        0.000000000   0.868986760   0.055119142
    -1.5408120    -0.9452520    14.9024720        0.000000000   0.000000000   0.421620340

                       Lattice parameters(A)       Cell Angles
                    a =      8.110785          alpha =   95.891171
                    b =      8.110799          beta  =   95.891255
                    c =     15.011705          gamma =   63.057604

                       Current cell volume =           873.952668       A**3
                                   density =             1.899404   AMU/A**3
                                           =             3.154034     g/cm^3

                           -------------------------------
                                     Cell Contents
                           -------------------------------
                         Total number of ions in cell =   66
                      Total number of species in cell =    4
                        Max number of any one species =   42

            xxxxxxxxxxxxxxxxxxxxxxxxxxxxxxxxxxxxxxxxxxxxxxxxxxxxxxxxxxxx
            x  Element    Atom        Fractional coordinates of atoms  x
            x            Number           u          v          w      x
            x----------------------------------------------------------x
            x  Li           1         0.993800   0.280186   0.740870   x 
            x  Li           2         0.280178   0.993804   0.240870   x 
            x  Li           3         0.012106   0.569285   0.030592   x 
            x  Li           4         0.569279   0.012095   0.530588   x 
            x  Li           5         0.376938   0.689646   0.346394   x 
            x  Li           6         0.689648   0.376932   0.846396   x 
            x  O            1         0.116243   0.850553   0.502968   x 
            x  O            2         0.850542   0.116242   0.002962   x 
            x  O            3         0.190995   0.455291   0.148352   x 
            x  O            4         0.455298   0.191000   0.648350   x 
            x  O            5         0.210145   0.252664   0.298293   x 
            x  O            6         0.252678   0.210121   0.798292   x 
            x  O            7         0.898465   0.862571   0.126805   x 
            x  O            8         0.862576   0.898462   0.626806   x 
            x  O            9         0.794220   0.079913   0.298056   x 
            x  O           10         0.079908   0.794222   0.798052   x 
            x  O           11         0.150841   0.485558   0.451368   x 
            x  O           12         0.485553   0.150846   0.951367   x 
            x  O           13         0.594069   0.452364   0.622154   x 
            x  O           14         0.452365   0.594060   0.122165   x 
            x  O           15         0.820761   0.442904   0.310110   x 
            x  O           16         0.442906   0.820786   0.810101   x 
            x  O           17         0.569344   0.556300   0.448784   x 
            x  O           18         0.556324   0.569325   0.948780   x 
            x  O           19         0.528138   0.807725   0.305792   x 
            x  O           20         0.807726   0.528129   0.805792   x 
            x  O           21         0.517122   0.827151   0.606382   x 
            x  O           22         0.827135   0.517158   0.106377   x 
            x  O           23         0.280794   0.095697   0.470499   x 
            x  O           24         0.095700   0.280794   0.970510   x 
            x  O           25         0.921394   0.672515   0.272682   x 
            x  O           26         0.672493   0.921398   0.772679   x 
            x  O           27         0.160432   0.845896   0.272569   x 
            x  O           28         0.845899   0.160426   0.772570   x 
            x  O           29         0.473551   0.434327   0.285681   x 
            x  O           30         0.434347   0.473538   0.785679   x 
            x  O           31         0.895864   0.210561   0.468453   x 
            x  O           32         0.210554   0.895871   0.968457   x 
            x  O           33         0.571355   0.207499   0.129690   x 
            x  O           34         0.207521   0.571353   0.629686   x 
            x  O           35         0.781847   0.790060   0.446740   x 
            x  O           36         0.790059   0.781847   0.946740   x 
            x  O           37         0.155465   0.094297   0.637664   x 
            x  O           38         0.094285   0.155467   0.137668   x 
            x  O           39         0.524348   0.217914   0.429533   x 
            x  O           40         0.217903   0.524338   0.929536   x 
            x  O           41         0.866628   0.551949   0.574751   x 
            x  O           42         0.551958   0.866628   0.074754   x 
            x  V            1         0.420462   0.418706   0.171255   x 
            x  V            2         0.418714   0.420463   0.671249   x 
            x  V            3         0.746846   0.682179   0.345337   x 
            x  V            4         0.682189   0.746838   0.845338   x 
            x  V            5         0.101928   0.067903   0.522630   x 
            x  V            6         0.067887   0.101940   0.022633   x 
            x  V            7         0.639241   0.602344   0.559340   x 
            x  V            8         0.602328   0.639249   0.059340   x 
            x  V            9         0.293032   0.269542   0.409564   x 
            x  V           10         0.269538   0.293025   0.909558   x 
            x  V           11         0.941309   0.880585   0.241618   x 
            x  V           12         0.880560   0.941314   0.741620   x 
            x  Fe           1         0.689507   0.308462   0.374693   x 
            x  Fe           2         0.308459   0.689518   0.874692   x 
            x  Fe           3         0.003297   0.692761   0.538582   x 
            x  Fe           4         0.692767   0.003308   0.038585   x 
            x  Fe           5         0.401339   0.013673   0.708604   x 
            x  Fe           6         0.013696   0.401321   0.208603   x 
            xxxxxxxxxxxxxxxxxxxxxxxxxxxxxxxxxxxxxxxxxxxxxxxxxxxxxxxxxxxx


                         No user defined ionic velocities

                           -------------------------------
                                   Details of Species
                           -------------------------------

                               Mass of species in AMU
                                    Li    6.9410000
                                    O   15.9994000
                                    V   50.9415000
                                    Fe   55.8450000

                          Electric Quadrupole Moment (Barn)
                                    Li   -0.0401000 Isotope   7
                                    O   -0.0255800 Isotope  17
                                    V   -0.0520000 Isotope  51
                                    Fe    0.1600000 Isotope  57
         xxxxxxxxxxxxxxxxxxxxxxxxxxxxxxxxxxxxxxxxxxxxxxxxxxxxxxxxxxxxxxxxxxxxxx
         |  Element    Atom         Initial            Initial magnetic       |
         |            Number    spin polarization        moment (uB)     Fix? |
         |--------------------------------------------------------------------|
         | Li             1         0.000000              0.000       F       |
         | Li             2         0.000000              0.000       F       |
         | Li             3         0.000000              0.000       F       |
         | Li             4         0.000000              0.000       F       |
         | Li             5         0.000000              0.000       F       |
         | Li             6         0.000000              0.000       F       |
         | O              1         0.000000              0.000       F       |
         | O              2         0.000000              0.000       F       |
         | O              3         0.000000              0.000       F       |
         | O              4         0.000000              0.000       F       |
         | O              5         0.000000              0.000       F       |
         | O              6         0.000000              0.000       F       |
         | O              7         0.000000              0.000       F       |
         | O              8         0.000000              0.000       F       |
         | O              9         0.000000              0.000       F       |
         | O             10         0.000000              0.000       F       |
         | O             11         0.000000              0.000       F       |
         | O             12         0.000000              0.000       F       |
         | O             13         0.000000              0.000       F       |
         | O             14         0.000000              0.000       F       |
         | O             15         0.000000              0.000       F       |
         | O             16         0.000000              0.000       F       |
         | O             17         0.000000              0.000       F       |
         | O             18         0.000000              0.000       F       |
         | O             19         0.000000              0.000       F       |
         | O             20         0.000000              0.000       F       |
         | O             21         0.000000              0.000       F       |
         | O             22         0.000000              0.000       F       |
         | O             23         0.000000              0.000       F       |
         | O             24         0.000000              0.000       F       |
         | O             25         0.000000              0.000       F       |
         | O             26         0.000000              0.000       F       |
         | O             27         0.000000              0.000       F       |
         | O             28         0.000000              0.000       F       |
         | O             29         0.000000              0.000       F       |
         | O             30         0.000000              0.000       F       |
         | O             31         0.000000              0.000       F       |
         | O             32         0.000000              0.000       F       |
         | O             33         0.000000              0.000       F       |
         | O             34         0.000000              0.000       F       |
         | O             35         0.000000              0.000       F       |
         | O             36         0.000000              0.000       F       |
         | O             37         0.000000              0.000       F       |
         | O             38         0.000000              0.000       F       |
         | O             39         0.000000              0.000       F       |
         | O             40         0.000000              0.000       F       |
         | O             41         0.000000              0.000       F       |
         | O             42         0.000000              0.000       F       |
         | V              1         0.000000              0.000       F       |
         | V              2         0.000000              0.000       F       |
         | V              3         0.000000              0.000       F       |
         | V              4         0.000000              0.000       F       |
         | V              5         0.000000              0.000       F       |
         | V              6         0.000000              0.000       F       |
         | V              7         0.000000              0.000       F       |
         | V              8         0.000000              0.000       F       |
         | V              9         0.000000              0.000       F       |
         | V             10         0.000000              0.000       F       |
         | V             11         0.000000              0.000       F       |
         | V             12         0.000000              0.000       F       |
         | Fe             1         0.625000              5.000       F       |
         | Fe             2         0.625000              5.000       F       |
         | Fe             3         0.625000              5.000       F       |
         | Fe             4         0.625000              5.000       F       |
         | Fe             5         0.625000              5.000       F       |
         | Fe             6         0.625000              5.000       F       |
         xxxxxxxxxxxxxxxxxxxxxxxxxxxxxxxxxxxxxxxxxxxxxxxxxxxxxxxxxxxxxxxxxxxxxx



         Quantisation axis:    0.00000   0.00000   1.00000

         Units for Hubbard U values are eV
         xxxxxxxxxxxxxxxxxxxxxxxxxxxxxxxxxxxxxxxxxxxxxxxxxxxxxxxxxxxxxxxxxxxx
         |  Element     Atom     Hubbard U   values by orbital type         |
         |             Number      s          p          d          f       |
         |------------------------------------------------------------------|
         |Li            1         0.00000    0.00000    0.00000    0.00000  |
         |Li            2         0.00000    0.00000    0.00000    0.00000  |
         |Li            3         0.00000    0.00000    0.00000    0.00000  |
         |Li            4         0.00000    0.00000    0.00000    0.00000  |
         |Li            5         0.00000    0.00000    0.00000    0.00000  |
         |Li            6         0.00000    0.00000    0.00000    0.00000  |
         |O             1         0.00000    0.00000    0.00000    0.00000  |
         |O             2         0.00000    0.00000    0.00000    0.00000  |
         |O             3         0.00000    0.00000    0.00000    0.00000  |
         |O             4         0.00000    0.00000    0.00000    0.00000  |
         |O             5         0.00000    0.00000    0.00000    0.00000  |
         |O             6         0.00000    0.00000    0.00000    0.00000  |
         |O             7         0.00000    0.00000    0.00000    0.00000  |
         |O             8         0.00000    0.00000    0.00000    0.00000  |
         |O             9         0.00000    0.00000    0.00000    0.00000  |
         |O            10         0.00000    0.00000    0.00000    0.00000  |
         |O            11         0.00000    0.00000    0.00000    0.00000  |
         |O            12         0.00000    0.00000    0.00000    0.00000  |
         |O            13         0.00000    0.00000    0.00000    0.00000  |
         |O            14         0.00000    0.00000    0.00000    0.00000  |
         |O            15         0.00000    0.00000    0.00000    0.00000  |
         |O            16         0.00000    0.00000    0.00000    0.00000  |
         |O            17         0.00000    0.00000    0.00000    0.00000  |
         |O            18         0.00000    0.00000    0.00000    0.00000  |
         |O            19         0.00000    0.00000    0.00000    0.00000  |
         |O            20         0.00000    0.00000    0.00000    0.00000  |
         |O            21         0.00000    0.00000    0.00000    0.00000  |
         |O            22         0.00000    0.00000    0.00000    0.00000  |
         |O            23         0.00000    0.00000    0.00000    0.00000  |
         |O            24         0.00000    0.00000    0.00000    0.00000  |
         |O            25         0.00000    0.00000    0.00000    0.00000  |
         |O            26         0.00000    0.00000    0.00000    0.00000  |
         |O            27         0.00000    0.00000    0.00000    0.00000  |
         |O            28         0.00000    0.00000    0.00000    0.00000  |
         |O            29         0.00000    0.00000    0.00000    0.00000  |
         |O            30         0.00000    0.00000    0.00000    0.00000  |
         |O            31         0.00000    0.00000    0.00000    0.00000  |
         |O            32         0.00000    0.00000    0.00000    0.00000  |
         |O            33         0.00000    0.00000    0.00000    0.00000  |
         |O            34         0.00000    0.00000    0.00000    0.00000  |
         |O            35         0.00000    0.00000    0.00000    0.00000  |
         |O            36         0.00000    0.00000    0.00000    0.00000  |
         |O            37         0.00000    0.00000    0.00000    0.00000  |
         |O            38         0.00000    0.00000    0.00000    0.00000  |
         |O            39         0.00000    0.00000    0.00000    0.00000  |
         |O            40         0.00000    0.00000    0.00000    0.00000  |
         |O            41         0.00000    0.00000    0.00000    0.00000  |
         |O            42         0.00000    0.00000    0.00000    0.00000  |
         |V             1         0.00000    0.00000    3.25000    0.00000  |
         |V             2         0.00000    0.00000    3.25000    0.00000  |
         |V             3         0.00000    0.00000    3.25000    0.00000  |
         |V             4         0.00000    0.00000    3.25000    0.00000  |
         |V             5         0.00000    0.00000    3.25000    0.00000  |
         |V             6         0.00000    0.00000    3.25000    0.00000  |
         |V             7         0.00000    0.00000    3.25000    0.00000  |
         |V             8         0.00000    0.00000    3.25000    0.00000  |
         |V             9         0.00000    0.00000    3.25000    0.00000  |
         |V            10         0.00000    0.00000    3.25000    0.00000  |
         |V            11         0.00000    0.00000    3.25000    0.00000  |
         |V            12         0.00000    0.00000    3.25000    0.00000  |
         |Fe            1         0.00000    0.00000    5.30000    0.00000  |
         |Fe            2         0.00000    0.00000    5.30000    0.00000  |
         |Fe            3         0.00000    0.00000    5.30000    0.00000  |
         |Fe            4         0.00000    0.00000    5.30000    0.00000  |
         |Fe            5         0.00000    0.00000    5.30000    0.00000  |
         |Fe            6         0.00000    0.00000    5.30000    0.00000  |
         xxxxxxxxxxxxxxxxxxxxxxxxxxxxxxxxxxxxxxxxxxxxxxxxxxxxxxxxxxxxxxxxxxxx


                          Files used for pseudopotentials:
                                    Li 1|1.0|14|16|18|10U:20(qc=7)
                                    O 2|1.1|17|20|23|20:21(qc=8)
                                    V 3|1.8|1.8|0.6|12|14|16|30U:40:31:32(qc=7)
                                    Fe 3|2.4|2.4|1.0|8|9|10|40:41:32U2U2(qc=5.5)

                           -------------------------------
                              k-Points For BZ Sampling
                           -------------------------------
                       MP grid size for SCF calculation is  3  3  2
                            with an offset of   0.000  0.000  0.000
                       Number of kpoints used =             9

                           -------------------------------
                               Symmetry and Constraints
                           -------------------------------

                      Maximum deviation from symmetry =  0.00000         ANG

                      Number of symmetry operations   =           1
                      Number of ionic constraints     =           3
                      Point group of crystal =     1: C1, 1, 1
                      Space group of crystal =     9: Cc, C -2yc

             Set iprint > 1 for details on symmetry rotations/translations

                         Centre of mass is constrained
             Set iprint > 2 for details of linear ionic constraints

                         Number of cell constraints= 0
                         Cell constraints are:  1 2 3 4 5 6

                         External pressure/stress (GPa)
                          0.00000   0.00000   0.00000
                                    0.00000   0.00000
                                              0.00000
 
+---------------- MEMORY AND SCRATCH DISK ESTIMATES PER PROCESS --------------+
|                                                     Memory          Disk    |
| Baseline code, static data and system overhead      817.0 MB         0.0 MB |
| BLAS internal memory storage                          0.0 MB         0.0 MB |
| Model and support data                              570.1 MB         0.0 MB |
| Electronic energy minimisation requirements         705.9 MB         0.0 MB |
| Force calculation requirements                        6.4 MB         0.0 MB |
|                                               ----------------------------- |
| Approx. total storage required per process         2093.0 MB         0.0 MB |
|                                                                             |
| Requirements will fluctuate during execution and may exceed these estimates |
+-----------------------------------------------------------------------------+
Calculating approximate eigenstates for fixed initial Hamiltonian
Cut-off for approx. calculation is  605.395 eV
Resetting cut-off to  900.000 eV
Improving states further at cut-off of  900.000 eV
Calculating total energy with cut-off of  900.000 eV.

 Pseudo atomic calculation performed for Li 1s2 2s1

 Converged in 18 iterations to a total energy of -200.5098 eV

 Pseudo atomic calculation performed for O 2s2 2p4

 Converged in 24 iterations to a total energy of -432.3399 eV

 Pseudo atomic calculation performed for V 3s2 3p6 3d3 4s2

 Converged in 36 iterations to a total energy of -2065.8041 eV

 Pseudo atomic calculation performed for Fe 3d6 4s2

 Converged in 34 iterations to a total energy of -853.8318 eV
------------------------------------------------------------------------ <-- SCF
SCF loop      Energy           Fermi           Energy gain       Timer   <-- SCF
                               energy          per atom          (sec)   <-- SCF
------------------------------------------------------------------------ <-- SCF
Initial  -4.73482645E+004  4.46300949E+000                       225.85  <-- SCF
      1  -4.97091609E+004  2.68167187E+000   3.57711589E+001     881.50  <-- SCF
      2  -4.97764966E+004  2.07700026E+000   1.02023681E+000    1366.14  <-- SCF
      3  -4.97803253E+004  2.05091731E+000   5.80110851E-002    1794.89  <-- SCF
      4  -4.97804957E+004  2.05091731E+000   2.58114979E-003    2177.70  <-- SCF
      5  -4.97804957E+004  2.05091731E+000   0.00000000E+000    2593.61  <-- SCF
      6  -4.97804957E+004  2.05091731E+000   0.00000000E+000    3009.10  <-- SCF
      7  -4.97279968E+004  2.17920172E+000  -7.95437933E-001    3573.62  <-- SCF
      8  -4.97291277E+004  2.08574508E+000   1.71349919E-002    3964.80  <-- SCF
      9  -4.97292064E+004  2.09633656E+000   1.19296576E-003    4301.80  <-- SCF
     10  -4.97292132E+004  2.09087653E+000   1.03310499E-004    4623.99  <-- SCF
     11  -4.97292141E+004  2.09203824E+000   1.28232884E-005    4924.89  <-- SCF
     12  -4.97292142E+004  2.09147692E+000   1.82525866E-006    5261.00  <-- SCF
     13  -4.97292142E+004  2.09158784E+000   2.77859037E-007    5558.17  <-- SCF
     14  -4.97292142E+004  2.09151610E+000   4.59450475E-008    5885.52  <-- SCF
------------------------------------------------------------------------ <-- SCF
 
Integrated Spin Density     =     30.0000     hbar/2
Integrated |Spin Density|   =     30.0968     hbar/2
 

     Hubbard U occupation numbers
     ----------------------------
Species   Ion   l  spin               occupancies
==================================================================
  V        1    2   up:   0.43  0.44  0.47  0.51  0.52
                    dn:   0.39  0.42  0.45  0.48  0.49
  V        2    2   up:   0.43  0.44  0.47  0.51  0.52
                    dn:   0.39  0.42  0.45  0.48  0.49
  V        3    2   up:   0.36  0.42  0.48  0.52  0.55
                    dn:   0.32  0.42  0.48  0.51  0.53
  V        4    2   up:   0.36  0.42  0.48  0.52  0.55
                    dn:   0.32  0.42  0.48  0.51  0.53
  V        5    2   up:   0.42  0.45  0.47  0.51  0.54
                    dn:   0.38  0.40  0.43  0.47  0.52
  V        6    2   up:   0.42  0.45  0.47  0.51  0.54
                    dn:   0.38  0.40  0.43  0.47  0.52
  V        7    2   up:   0.42  0.44  0.48  0.51  0.53
                    dn:   0.38  0.40  0.45  0.48  0.51
  V        8    2   up:   0.42  0.44  0.48  0.51  0.53
                    dn:   0.38  0.40  0.45  0.48  0.51
  V        9    2   up:   0.43  0.43  0.47  0.51  0.53
                    dn:   0.39  0.41  0.45  0.49  0.51
  V       10    2   up:   0.43  0.43  0.47  0.51  0.53
                    dn:   0.39  0.41  0.45  0.49  0.51
  V       11    2   up:   0.41  0.43  0.46  0.52  0.53
                    dn:   0.39  0.41  0.44  0.50  0.51
  V       12    2   up:   0.41  0.43  0.46  0.52  0.53
                    dn:   0.39  0.41  0.44  0.50  0.51
  Fe       1    2   up:   0.99  0.99  1.00  1.00  1.00
                    dn:   0.10  0.10  0.12  0.36  0.41
  Fe       2    2   up:   0.99  0.99  1.00  1.00  1.00
                    dn:   0.10  0.10  0.12  0.36  0.41
  Fe       3    2   up:   0.99  0.99  1.00  1.00  1.00
                    dn:   0.11  0.11  0.12  0.38  0.40
  Fe       4    2   up:   0.99  0.99  1.00  1.00  1.00
                    dn:   0.11  0.11  0.12  0.38  0.40
  Fe       5    2   up:   0.99  0.99  1.00  1.00  1.00
                    dn:   0.11  0.11  0.12  0.36  0.40
  Fe       6    2   up:   0.99  0.99  1.00  1.00  1.00
                    dn:   0.11  0.11  0.12  0.36  0.40
==================================================================

Final energy, E             =  -49729.21421367     eV
Final free energy (E-TS)    =  -49729.21421367     eV
(energies not corrected for finite basis set)
 
NB est. 0K energy (E-0.5TS)      =  -49729.21421367     eV
 

Writing analysis data to ml_dos.castep_bin

Writing model to ml_dos.check
 
+---------------- MEMORY AND SCRATCH DISK ESTIMATES PER PROCESS --------------+
|                                                     Memory          Disk    |
|                                               ----------------------------- |
| Approx. total storage required per process         1663.3 MB         0.0 MB |
|                                                                             |
| Requirements will fluctuate during execution and may exceed these estimates |
+-----------------------------------------------------------------------------+
 
  =====================================================================
  +                                                                   +
  +                 Calculation of Spectral Properties                +
  +                                                                   +
  + Calculation re-parallelised over 36 processes.                    +
  + There are 9 k-points distributed across 9 k-point groups.         +
  + Data distributed by G-vector(4-way), k-point(9-way), band(1-way)  +
  + Data distributed by G-vector(4-way), k-point(9-way)               +
  +                                                                   +
  =====================================================================

 Pseudo atomic calculation performed for Li 1s2 2s1

 Converged in 18 iterations to a total energy of -200.5098 eV

 Pseudo atomic calculation performed for O 2s2 2p4

 Converged in 24 iterations to a total energy of -432.3399 eV

 Pseudo atomic calculation performed for V 3s2 3p6 3d3 4s2

 Converged in 36 iterations to a total energy of -2065.8041 eV

 Pseudo atomic calculation performed for Fe 3d6 4s2

 Converged in 34 iterations to a total energy of -853.8318 eV

 Pseudo atomic calculation performed for Li 1s2 2s1

 Converged in 18 iterations to a total energy of -200.5098 eV

 Pseudo atomic calculation performed for O 2s2 2p4

 Converged in 24 iterations to a total energy of -432.3399 eV

 Pseudo atomic calculation performed for V 3s2 3p6 3d3 4s2

 Converged in 36 iterations to a total energy of -2065.8041 eV

 Pseudo atomic calculation performed for Fe 3d6 4s2

 Converged in 34 iterations to a total energy of -853.8318 eV
  Starting k-point:        1 of        1 Time:      0.00 sec  |<-- SPEC

 Pseudo atomic calculation performed for Li 1s2 2s1

 Converged in 18 iterations to a total energy of -200.5098 eV

 Pseudo atomic calculation performed for O 2s2 2p4

 Converged in 24 iterations to a total energy of -432.3399 eV

 Pseudo atomic calculation performed for V 3s2 3p6 3d3 4s2

 Converged in 36 iterations to a total energy of -2065.8041 eV

 Pseudo atomic calculation performed for Fe 3d6 4s2

 Converged in 34 iterations to a total energy of -853.8318 eV
  Starting k-point:        1 of        1 Time:    285.97 sec  |<-- SPEC

 Pseudo atomic calculation performed for Li 1s2 2s1

 Converged in 18 iterations to a total energy of -200.5098 eV

 Pseudo atomic calculation performed for O 2s2 2p4

 Converged in 24 iterations to a total energy of -432.3399 eV

 Pseudo atomic calculation performed for V 3s2 3p6 3d3 4s2

 Converged in 36 iterations to a total energy of -2065.8041 eV

 Pseudo atomic calculation performed for Fe 3d6 4s2

 Converged in 34 iterations to a total energy of -853.8318 eV
  Check-pointing spectral run                                 |<-- SPEC
  Total time to compute matrix elements            575.48 sec |<-- SPEC
  
  + Calculation re-parallelised over 40 processes.                    +
  + Data distributed by G-vector(40-way)                              +

 Pseudo atomic calculation performed for Li 1s2 2s1

 Converged in 18 iterations to a total energy of -200.5098 eV

 Pseudo atomic calculation performed for O 2s2 2p4

 Converged in 24 iterations to a total energy of -432.3399 eV

 Pseudo atomic calculation performed for V 3s2 3p6 3d3 4s2

 Converged in 36 iterations to a total energy of -2065.8041 eV

 Pseudo atomic calculation performed for Fe 3d6 4s2

 Converged in 34 iterations to a total energy of -853.8318 eV

 ************************** Forces **************************
 *                                                          *
 *               Cartesian components (eV/A)                *
 * -------------------------------------------------------- *
 *                         x            y            z      *
 *                                                          *
 * Li              1      0.02633      0.03446     -0.12572 *
 * Li              2      0.04295      0.00760     -0.12546 *
 * Li              3      0.07735      0.15038      0.08216 *
 * Li              4      0.16918      0.00101      0.08232 *
 * Li              5     -0.13444     -0.00784      0.05572 *
 * Li              6     -0.06801     -0.11634      0.05565 *
 * O               1      0.75420      0.73962     -0.13887 *
 * O               2      1.00147      0.33788     -0.13858 *
 * O               3      0.76826      0.03478     -0.01783 *
 * O               4      0.37876      0.66875     -0.01790 *
 * O               5      0.52893     -0.41920      0.66919 *
 * O               6     -0.13465      0.66256      0.66918 *
 * O               7      0.41988      0.19231      0.49815 *
 * O               8      0.36100      0.28722      0.49879 *
 * O               9      0.15782     -0.97324     -0.82020 *
 * O              10     -0.79671      0.58168     -0.81980 *
 * O              11      0.34566     -0.98839     -0.47108 *
 * O              12     -0.72427      0.75558     -0.47084 *
 * O              13      0.11361      0.13175     -0.02710 *
 * O              14      0.16883      0.04152     -0.02772 *
 * O              15     -0.24228      0.10894      0.54851 *
 * O              16     -0.01390     -0.26741      0.54992 *
 * O              17      0.62510      0.68872      0.00051 *
 * O              18      0.89578      0.24697      0.00078 *
 * O              19      0.68011     -0.35911      0.23726 *
 * O              20     -0.01156      0.76930      0.23720 *
 * O              21      0.02006     -0.78723     -0.83702 *
 * O              22     -0.69214      0.37252     -0.83547 *
 * O              23     -0.05282     -0.09078     -0.15320 *
 * O              24     -0.10524     -0.00619     -0.15383 *
 * O              25     -0.02489      0.90300      0.32621 *
 * O              26      0.79544     -0.43151      0.32660 *
 * O              27     -0.61233      0.11326     -0.37394 *
 * O              28     -0.17688     -0.59668     -0.37387 *
 * O              29     -0.35276      0.27091     -0.72362 *
 * O              30      0.08104     -0.43569     -0.72324 *
 * O              31      0.59527     -0.33308      1.01709 *
 * O              32     -0.02727      0.68181      1.01721 *
 * O              33     -0.41206      1.08876      0.51845 *
 * O              34      0.78183     -0.85896      0.51733 *
 * O              35     -0.33445     -0.33087     -0.21435 *
 * O              36     -0.44621     -0.14784     -0.21464 *
 * O              37     -0.72123      0.48764     -0.29175 *
 * O              38      0.10742     -0.86364     -0.29132 *
 * O              39     -0.61201      0.19137     -0.13144 *
 * O              40     -0.10538     -0.63072     -0.13239 *
 * O              41     -0.79756     -0.15473     -0.06242 *
 * O              42     -0.50017     -0.64063     -0.06300 *
 * V               1     -0.03740     -0.51106      0.38441 *
 * V               2     -0.47135      0.19677      0.38667 *
 * V               3     -0.42618      0.28929     -0.36655 *
 * V               4      0.06325     -0.51085     -0.36625 *
 * V               5     -0.70550     -0.76202     -0.57532 *
 * V               6     -0.99750     -0.28545     -0.57640 *
 * V               7      0.14501      0.12141      1.07803 *
 * V               8      0.17553      0.07419      1.07813 *
 * V               9     -0.29705      0.74829     -0.22507 *
 * V              10      0.53251     -0.60417     -0.22401 *
 * V              11      0.37851     -0.01890      0.11294 *
 * V              12      0.15842      0.34420      0.11163 *
 * Fe              1      0.07434     -0.22494     -0.02197 *
 * Fe              2     -0.16702      0.16675     -0.02277 *
 * Fe              3     -0.05537      0.06151     -0.00387 *
 * Fe              4      0.02838     -0.07801     -0.00464 *
 * Fe              5     -0.07922     -0.08904      0.05144 *
 * Fe              6     -0.11643     -0.02821      0.05199 *
 *                                                          *
 ************************************************************

 Pseudo atomic calculation performed for Li 1s2 2s1

 Converged in 18 iterations to a total energy of -200.5098 eV

 Pseudo atomic calculation performed for O 2s2 2p4

 Converged in 24 iterations to a total energy of -432.3399 eV

 Pseudo atomic calculation performed for V 3s2 3p6 3d3 4s2

 Converged in 36 iterations to a total energy of -2065.8041 eV

 Pseudo atomic calculation performed for Fe 3d6 4s2

 Converged in 34 iterations to a total energy of -853.8318 eV
Charge spilling parameter for spin component 1 = 0.19%
Charge spilling parameter for spin component 2 = 0.15%

                   Orbital Populations                  
  ---------------------------------------------------------------
     Ion    Atom   Orbital              Up        Down      Spin
  ---------------------------------------------------------------
     Li     1      S                    1.000     1.000     0.000
     Li     1      S                    0.012     0.014    -0.002
     Li     1      Px                   0.036     0.039    -0.002
     Li     1      Py                   0.031     0.035    -0.004
     Li     1      Pz                   0.028     0.029    -0.002
     Li     2      S                    1.000     1.000     0.000
     Li     2      S                    0.012     0.014    -0.002
     Li     2      Px                   0.028     0.030    -0.002
     Li     2      Py                   0.039     0.043    -0.004
     Li     2      Pz                   0.028     0.029    -0.002
     Li     3      S                    1.000     1.000     0.000
     Li     3      S                    0.004     0.008    -0.005
     Li     3      Px                   0.031     0.034    -0.003
     Li     3      Py                   0.035     0.039    -0.004
     Li     3      Pz                   0.027     0.031    -0.004
     Li     4      S                    1.000     1.000     0.000
     Li     4      S                    0.004     0.008    -0.005
     Li     4      Px                   0.032     0.035    -0.004
     Li     4      Py                   0.034     0.038    -0.004
     Li     4      Pz                   0.027     0.031    -0.004
     Li     5      S                    1.001     1.001     0.000
     Li     5      S                    0.008     0.011    -0.003
     Li     5      Px                   0.026     0.028    -0.002
     Li     5      Py                   0.042     0.046    -0.004
     Li     5      Pz                   0.039     0.041    -0.002
     Li     6      S                    1.001     1.001     0.000
     Li     6      S                    0.008     0.011    -0.003
     Li     6      Px                   0.035     0.037    -0.002
     Li     6      Py                   0.033     0.036    -0.004
     Li     6      Pz                   0.039     0.041    -0.002
      O     1      S                    0.945     0.935     0.010
      O     1      Px                   0.807     0.778     0.029
      O     1      Py                   0.765     0.749     0.016
      O     1      Pz                   0.826     0.808     0.018
      O     2      S                    0.945     0.935     0.010
      O     2      Px                   0.752     0.725     0.027
      O     2      Py                   0.820     0.801     0.018
      O     2      Pz                   0.826     0.808     0.018
      O     3      S                    0.941     0.931     0.010
      O     3      Px                   0.771     0.724     0.047
      O     3      Py                   0.843     0.816     0.027
      O     3      Pz                   0.842     0.806     0.036
      O     4      S                    0.941     0.931     0.010
      O     4      Px                   0.837     0.793     0.045
      O     4      Py                   0.777     0.748     0.029
      O     4      Pz                   0.842     0.806     0.036
      O     5      S                    0.940     0.930     0.010
      O     5      Px                   0.833     0.810     0.024
      O     5      Py                   0.842     0.806     0.036
      O     5      Pz                   0.782     0.755     0.027
      O     6      S                    0.940     0.930     0.010
      O     6      Px                   0.836     0.815     0.021
      O     6      Py                   0.839     0.801     0.039
      O     6      Pz                   0.782     0.755     0.027
      O     7      S                    0.942     0.933     0.010
      O     7      Px                   0.837     0.804     0.032
      O     7      Py                   0.828     0.789     0.039
      O     7      Pz                   0.770     0.746     0.023
      O     8      S                    0.942     0.933     0.010
      O     8      Px                   0.819     0.797     0.022
      O     8      Py                   0.846     0.797     0.050
      O     8      Pz                   0.770     0.746     0.023
      O     9      S                    0.941     0.929     0.012
      O     9      Px                   0.825     0.807     0.018
      O     9      Py                   0.785     0.748     0.037
      O     9      Pz                   0.811     0.779     0.032
      O    10      S                    0.941     0.929     0.012
      O    10      Px                   0.799     0.768     0.032
      O    10      Py                   0.811     0.788     0.023
      O    10      Pz                   0.811     0.779     0.032
      O    11      S                    0.941     0.930     0.011
      O    11      Px                   0.822     0.807     0.015
      O    11      Py                   0.771     0.750     0.020
      O    11      Pz                   0.806     0.783     0.024
      O    12      S                    0.941     0.930     0.011
      O    12      Px                   0.794     0.778     0.017
      O    12      Py                   0.799     0.779     0.019
      O    12      Pz                   0.806     0.783     0.024
      O    13      S                    0.929     0.929    -0.001
      O    13      Px                   0.772     0.773    -0.001
      O    13      Py                   0.808     0.806     0.002
      O    13      Pz                   0.806     0.805     0.001
      O    14      S                    0.929     0.929    -0.001
      O    14      Px                   0.777     0.777    -0.001
      O    14      Py                   0.803     0.801     0.001
      O    14      Pz                   0.806     0.805     0.001
      O    15      S                    0.944     0.932     0.012
      O    15      Px                   0.846     0.787     0.059
      O    15      Py                   0.790     0.759     0.031
      O    15      Pz                   0.836     0.791     0.045
      O    16      S                    0.944     0.932     0.012
      O    16      Px                   0.789     0.745     0.044
      O    16      Py                   0.848     0.801     0.047
      O    16      Pz                   0.836     0.791     0.045
      O    17      S                    0.941     0.933     0.008
      O    17      Px                   0.835     0.819     0.015
      O    17      Py                   0.828     0.790     0.039
      O    17      Pz                   0.782     0.764     0.018
      O    18      S                    0.941     0.933     0.008
      O    18      Px                   0.816     0.791     0.025
      O    18      Py                   0.847     0.818     0.030
      O    18      Pz                   0.782     0.764     0.018
      O    19      S                    0.942     0.942    -0.000
      O    19      Px                   0.765     0.765    -0.000
      O    19      Py                   0.793     0.790     0.003
      O    19      Pz                   0.795     0.794     0.001
      O    20      S                    0.942     0.942    -0.000
      O    20      Px                   0.804     0.803     0.001
      O    20      Py                   0.753     0.752     0.001
      O    20      Pz                   0.795     0.794     0.001
      O    21      S                    0.938     0.928     0.010
      O    21      Px                   0.846     0.824     0.022
      O    21      Py                   0.780     0.760     0.019
      O    21      Pz                   0.811     0.785     0.026
      O    22      S                    0.938     0.928     0.010
      O    22      Px                   0.800     0.781     0.018
      O    22      Py                   0.827     0.803     0.023
      O    22      Pz                   0.811     0.785     0.026
      O    23      S                    0.928     0.928    -0.001
      O    23      Px                   0.784     0.785    -0.000
      O    23      Py                   0.807     0.806     0.001
      O    23      Pz                   0.815     0.813     0.002
      O    24      S                    0.928     0.928    -0.001
      O    24      Px                   0.779     0.780    -0.001
      O    24      Py                   0.812     0.811     0.002
      O    24      Pz                   0.815     0.813     0.002
      O    25      S                    0.934     0.927     0.008
      O    25      Px                   0.797     0.792     0.005
      O    25      Py                   0.813     0.778     0.035
      O    25      Pz                   0.836     0.817     0.019
      O    26      S                    0.934     0.927     0.008
      O    26      Px                   0.791     0.763     0.028
      O    26      Py                   0.818     0.807     0.011
      O    26      Pz                   0.836     0.817     0.019
      O    27      S                    0.940     0.939     0.000
      O    27      Px                   0.761     0.761     0.000
      O    27      Py                   0.808     0.802     0.006
      O    27      Pz                   0.819     0.815     0.004
      O    28      S                    0.940     0.939     0.000
      O    28      Px                   0.807     0.802     0.005
      O    28      Py                   0.763     0.761     0.001
      O    28      Pz                   0.819     0.815     0.004
      O    29      S                    0.941     0.931     0.010
      O    29      Px                   0.832     0.802     0.030
      O    29      Py                   0.843     0.812     0.031
      O    29      Pz                   0.768     0.747     0.021
      O    30      S                    0.941     0.931     0.010
      O    30      Px                   0.836     0.820     0.015
      O    30      Py                   0.839     0.794     0.046
      O    30      Pz                   0.768     0.747     0.021
      O    31      S                    0.941     0.930     0.011
      O    31      Px                   0.800     0.776     0.025
      O    31      Py                   0.812     0.793     0.019
      O    31      Pz                   0.799     0.780     0.019
      O    32      S                    0.941     0.930     0.011
      O    32      Px                   0.830     0.811     0.019
      O    32      Py                   0.783     0.758     0.024
      O    32      Pz                   0.799     0.780     0.020
      O    33      S                    0.943     0.931     0.012
      O    33      Px                   0.816     0.801     0.015
      O    33      Py                   0.773     0.748     0.025
      O    33      Pz                   0.807     0.778     0.029
      O    34      S                    0.943     0.931     0.012
      O    34      Px                   0.794     0.774     0.021
      O    34      Py                   0.795     0.776     0.019
      O    34      Pz                   0.807     0.778     0.029
      O    35      S                    0.942     0.935     0.008
      O    35      Px                   0.810     0.787     0.023
      O    35      Py                   0.831     0.805     0.025
      O    35      Pz                   0.790     0.762     0.028
      O    36      S                    0.942     0.935     0.008
      O    36      Px                   0.807     0.796     0.011
      O    36      Py                   0.834     0.797     0.037
      O    36      Pz                   0.790     0.762     0.028
      O    37      S                    0.942     0.933     0.009
      O    37      Px                   0.818     0.775     0.043
      O    37      Py                   0.853     0.823     0.030
      O    37      Pz                   0.778     0.761     0.018
      O    38      S                    0.942     0.933     0.009
      O    38      Px                   0.848     0.824     0.024
      O    38      Py                   0.823     0.775     0.049
      O    38      Pz                   0.778     0.761     0.018
      O    39      S                    0.944     0.935     0.009
      O    39      Px                   0.766     0.729     0.037
      O    39      Py                   0.824     0.806     0.018
      O    39      Pz                   0.831     0.810     0.021
      O    40      S                    0.944     0.935     0.009
      O    40      Px                   0.824     0.791     0.033
      O    40      Py                   0.766     0.744     0.023
      O    40      Pz                   0.831     0.810     0.021
      O    41      S                    0.945     0.937     0.008
      O    41      Px                   0.752     0.725     0.027
      O    41      Py                   0.814     0.795     0.019
      O    41      Pz                   0.816     0.802     0.014
      O    42      S                    0.945     0.937     0.008
      O    42      Px                   0.808     0.775     0.033
      O    42      Py                   0.757     0.744     0.013
      O    42      Pz                   0.816     0.802     0.014
      V     1      S                    0.996     0.996     0.000
      V     1      Px                   0.995     0.995     0.000
      V     1      Py                   0.995     0.995     0.000
      V     1      Pz                   0.995     0.995     0.000
      V     1      Dzz                  0.350     0.314     0.036
      V     1      Dzy                  0.322     0.307     0.015
      V     1      Dzx                  0.318     0.292     0.026
      V     1      Dxx-yy               0.337     0.308     0.029
      V     1      Dxy                  0.329     0.303     0.026
      V     1      S                    0.090     0.088     0.002
      V     1      Px                   0.064     0.065    -0.001
      V     1      Py                   0.071     0.070     0.001
      V     1      Pz                   0.069     0.067     0.002
      V     2      S                    0.996     0.996     0.000
      V     2      Px                   0.995     0.995    -0.000
      V     2      Py                   0.995     0.995     0.000
      V     2      Pz                   0.995     0.995     0.000
      V     2      Dzz                  0.350     0.314     0.036
      V     2      Dzy                  0.324     0.295     0.028
      V     2      Dzx                  0.316     0.304     0.012
      V     2      Dxx-yy               0.330     0.312     0.019
      V     2      Dxy                  0.335     0.300     0.036
      V     2      S                    0.089     0.088     0.002
      V     2      Px                   0.074     0.073     0.001
      V     2      Py                   0.061     0.062    -0.001
      V     2      Pz                   0.069     0.067     0.002
      V     3      S                    0.995     0.995    -0.000
      V     3      Px                   0.995     0.995     0.000
      V     3      Py                   0.995     0.995     0.000
      V     3      Pz                   0.995     0.995     0.000
      V     3      Dzz                  0.335     0.327     0.008
      V     3      Dzy                  0.308     0.275     0.032
      V     3      Dzx                  0.333     0.330     0.004
      V     3      Dxx-yy               0.343     0.335     0.008
      V     3      Dxy                  0.307     0.287     0.020
      V     3      S                    0.099     0.102    -0.003
      V     3      Px                   0.087     0.089    -0.002
      V     3      Py                   0.064     0.067    -0.003
      V     3      Pz                   0.079     0.083    -0.004
      V     4      S                    0.995     0.995    -0.000
      V     4      Px                   0.996     0.996     0.000
      V     4      Py                   0.994     0.994     0.000
      V     4      Pz                   0.995     0.995     0.000
      V     4      Dzz                  0.335     0.327     0.008
      V     4      Dzy                  0.334     0.322     0.011
      V     4      Dzx                  0.308     0.283     0.025
      V     4      Dxx-yy               0.320     0.308     0.012
      V     4      Dxy                  0.330     0.314     0.016
      V     4      S                    0.099     0.102    -0.003
      V     4      Px                   0.070     0.073    -0.003
      V     4      Py                   0.081     0.082    -0.001
      V     4      Pz                   0.079     0.083    -0.004
      V     5      S                    0.996     0.996    -0.000
      V     5      Px                   0.996     0.996    -0.000
      V     5      Py                   0.995     0.995     0.000
      V     5      Pz                   0.995     0.995     0.000
      V     5      Dzz                  0.349     0.309     0.040
      V     5      Dzy                  0.335     0.297     0.038
      V     5      Dzx                  0.316     0.292     0.024
      V     5      Dxx-yy               0.330     0.296     0.034
      V     5      Dxy                  0.340     0.306     0.035
      V     5      S                    0.091     0.087     0.004
      V     5      Px                   0.070     0.067     0.003
      V     5      Py                   0.069     0.069     0.000
      V     5      Pz                   0.073     0.071     0.002
      V     6      S                    0.996     0.996    -0.000
      V     6      Px                   0.995     0.995    -0.000
      V     6      Py                   0.996     0.996     0.000
      V     6      Pz                   0.995     0.995     0.000
      V     6      Dzz                  0.349     0.309     0.040
      V     6      Dzy                  0.319     0.288     0.031
      V     6      Dzx                  0.333     0.302     0.031
      V     6      Dxx-yy               0.339     0.309     0.030
      V     6      Dxy                  0.331     0.292     0.039
      V     6      S                    0.091     0.087     0.004
      V     6      Px                   0.067     0.067    -0.000
      V     6      Py                   0.072     0.069     0.003
      V     6      Pz                   0.073     0.071     0.002
      V     7      S                    0.996     0.996     0.000
      V     7      Px                   0.995     0.995     0.000
      V     7      Py                   0.995     0.995     0.000
      V     7      Pz                   0.995     0.995     0.000
      V     7      Dzz                  0.334     0.307     0.027
      V     7      Dzy                  0.311     0.289     0.022
      V     7      Dzx                  0.333     0.310     0.023
      V     7      Dxx-yy               0.344     0.317     0.027
      V     7      Dxy                  0.333     0.298     0.035
      V     7      S                    0.092     0.091     0.001
      V     7      Px                   0.063     0.065    -0.002
      V     7      Py                   0.083     0.079     0.003
      V     7      Pz                   0.080     0.079     0.001
      V     8      S                    0.996     0.996     0.000
      V     8      Px                   0.995     0.995     0.000
      V     8      Py                   0.995     0.995     0.000
      V     8      Pz                   0.995     0.995     0.000
      V     8      Dzz                  0.334     0.307     0.027
      V     8      Dzy                  0.331     0.299     0.032
      V     8      Dzx                  0.313     0.300     0.013
      V     8      Dxx-yy               0.335     0.304     0.031
      V     8      Dxy                  0.342     0.311     0.031
      V     8      S                    0.092     0.091     0.001
      V     8      Px                   0.079     0.077     0.002
      V     8      Py                   0.067     0.067    -0.001
      V     8      Pz                   0.080     0.079     0.001
      V     9      S                    0.996     0.996     0.000
      V     9      Px                   0.995     0.995     0.000
      V     9      Py                   0.995     0.995     0.000
      V     9      Pz                   0.995     0.995     0.000
      V     9      Dzz                  0.343     0.310     0.033
      V     9      Dzy                  0.320     0.299     0.021
      V     9      Dzx                  0.325     0.304     0.021
      V     9      Dxx-yy               0.342     0.312     0.030
      V     9      Dxy                  0.330     0.307     0.023
      V     9      S                    0.099     0.097     0.002
      V     9      Px                   0.065     0.066    -0.001
      V     9      Py                   0.085     0.082     0.003
      V     9      Pz                   0.084     0.083     0.001
      V    10      S                    0.996     0.996     0.000
      V    10      Px                   0.995     0.995     0.000
      V    10      Py                   0.995     0.995     0.000
      V    10      Pz                   0.995     0.995     0.000
      V    10      Dzz                  0.343     0.310     0.033
      V    10      Dzy                  0.331     0.310     0.021
      V    10      Dzx                  0.315     0.293     0.022
      V    10      Dxx-yy               0.339     0.319     0.020
      V    10      Dxy                  0.333     0.300     0.033
      V    10      S                    0.099     0.097     0.002
      V    10      Px                   0.088     0.085     0.003
      V    10      Py                   0.062     0.063    -0.001
      V    10      Pz                   0.084     0.083     0.001
      V    11      S                    0.995     0.995     0.000
      V    11      Px                   0.995     0.995     0.000
      V    11      Py                   0.996     0.996     0.000
      V    11      Pz                   0.995     0.995     0.000
      V    11      Dzz                  0.352     0.327     0.026
      V    11      Dzy                  0.317     0.287     0.030
      V    11      Dzx                  0.335     0.320     0.015
      V    11      Dxx-yy               0.323     0.308     0.015
      V    11      Dxy                  0.320     0.296     0.023
      V    11      S                    0.092     0.091     0.002
      V    11      Px                   0.077     0.075     0.002
      V    11      Py                   0.071     0.073    -0.002
      V    11      Pz                   0.067     0.068    -0.000
      V    12      S                    0.995     0.995     0.000
      V    12      Px                   0.996     0.996     0.000
      V    12      Py                   0.995     0.994     0.000
      V    12      Pz                   0.995     0.995     0.000
      V    12      Dzz                  0.352     0.327     0.026
      V    12      Dzy                  0.343     0.325     0.018
      V    12      Dzx                  0.309     0.283     0.027
      V    12      Dxx-yy               0.330     0.316     0.013
      V    12      Dxy                  0.313     0.288     0.025
      V    12      S                    0.092     0.091     0.002
      V    12      Px                   0.079     0.080    -0.001
      V    12      Py                   0.069     0.067     0.002
      V    12      Pz                   0.067     0.068    -0.000
     Fe     1      Dzz                  0.999     0.083     0.916
     Fe     1      Dzy                  0.993     0.234     0.760
     Fe     1      Dzx                  0.995     0.191     0.804
     Fe     1      Dxx-yy               0.996     0.152     0.844
     Fe     1      Dxy                  0.997     0.141     0.856
     Fe     1      S                    0.221     0.180     0.041
     Fe     1      Px                   0.093     0.083     0.011
     Fe     1      Py                   0.092     0.080     0.012
     Fe     1      Pz                   0.088     0.078     0.010
     Fe     2      Dzz                  0.999     0.083     0.916
     Fe     2      Dzy                  0.993     0.239     0.754
     Fe     2      Dzx                  0.995     0.185     0.810
     Fe     2      Dxx-yy               0.997     0.105     0.892
     Fe     2      Dxy                  0.996     0.187     0.809
     Fe     2      S                    0.221     0.180     0.041
     Fe     2      Px                   0.094     0.082     0.012
     Fe     2      Py                   0.091     0.081     0.011
     Fe     2      Pz                   0.088     0.078     0.010
     Fe     3      Dzz                  0.998     0.103     0.895
     Fe     3      Dzy                  0.992     0.224     0.768
[...]
              O 10 -- V 12                   0.70         0.00          1.71275
              O 31 -- V 5                    0.68         0.01          1.71911
              O 32 -- V 6                    0.68         0.01          1.71915
              O 40 -- V 10                   0.66         0.01          1.72727
              O 39 -- V 9                    0.66         0.01          1.72730
              O 7  -- V 11                   0.64         0.01          1.72744
              O 8  -- V 12                   0.64         0.01          1.72745
              O 29 -- V 1                    0.60         0.00          1.73349
              O 30 -- V 2                    0.60         0.00          1.73353
              O 36 -- V 4                    0.64         0.01          1.73961
              O 35 -- V 3                    0.64         0.01          1.73965
              O 22 -- V 8                    0.68         0.00          1.74553
              O 21 -- V 7                    0.68         0.00          1.74559
              O 4  -- V 2                    0.61         0.01          1.74905
              O 3  -- V 1                    0.61         0.01          1.74908
              O 6  -- V 10                   0.60         0.01          1.75117
              O 5  -- V 9                    0.60         0.01          1.75122
              O 37 -- V 5                    0.59         0.01          1.75238
              O 38 -- V 6                    0.59         0.01          1.75238
              O 17 -- V 7                    0.59         0.01          1.75691
              O 18 -- V 8                    0.59         0.01          1.75695
              O 15 -- V 3                    0.59         0.01          1.79039
              O 16 -- V 4                    0.59         0.01          1.79044
              O 13 -- V 7                    0.49        -0.00          1.79260
              O 14 -- V 8                    0.49        -0.00          1.79266
              O 14 -- V 1                    0.53        -0.00          1.79461
              O 13 -- V 2                    0.53        -0.00          1.79465
              O 23 -- V 9                    0.52        -0.00          1.80139
              O 24 -- V 10                   0.52        -0.00          1.80146
              O 24 -- V 6                    0.46        -0.00          1.82573
              O 23 -- V 5                    0.46        -0.00          1.82580
              O 25 -- V 3                    0.42         0.00          1.84360
              O 26 -- V 4                    0.42         0.00          1.84362
              O 26 -- V 12                   0.41         0.00          1.87495
              O 25 -- V 11                   0.41         0.00          1.87500
              Li 5 -- O 27                   0.18        -0.00          1.94681
              Li 6 -- O 28                   0.18        -0.00          1.94682
              O 9  -- Fe 1                   0.33        -0.05          1.95378
              O 10 -- Fe 2                   0.33        -0.05          1.95380
              Li 2 -- O 27                   0.13         0.00          1.96896
              Li 1 -- O 28                   0.13         0.00          1.96901
              O 33 -- Fe 4                   0.28        -0.04          1.97905
              O 34 -- Fe 3                   0.28        -0.04          1.97917
              O 31 -- Fe 1                   0.32        -0.04          1.98856
              O 32 -- Fe 2                   0.32        -0.04          1.98860
              O 6  -- Fe 5                   0.32        -0.04          1.98928
              O 5  -- Fe 6                   0.32        -0.04          1.98929
              O 7  -- Fe 4                   0.29        -0.05          1.99281
              O 8  -- Fe 3                   0.29        -0.05          1.99283
              O 3  -- Fe 6                   0.31        -0.05          1.99908
              O 4  -- Fe 5                   0.31        -0.05          1.99925
              O 11 -- Fe 3                   0.28        -0.04          2.00450
              O 12 -- Fe 4                   0.28        -0.04          2.00456
              Li 6 -- O 30                   0.13         0.00          2.00533
              Li 5 -- O 29                   0.13         0.00          2.00543
              O 21 -- Fe 5                   0.33        -0.04          2.01425
              O 22 -- Fe 6                   0.33        -0.04          2.01453
              O 38 -- Fe 6                   0.30        -0.04          2.01578
              O 37 -- Fe 5                   0.30        -0.04          2.01591
              O 2  -- Fe 4                   0.29        -0.04          2.01639
              O 1  -- Fe 3                   0.29        -0.04          2.01653
              O 29 -- Fe 1                   0.26        -0.04          2.01863
              O 30 -- Fe 2                   0.26        -0.04          2.01878
              Li 2 -- O 5                    0.08         0.00          2.03031
              Li 1 -- O 6                    0.08         0.00          2.03039
              Li 6 -- O 20                   0.08         0.00          2.03228
              Li 5 -- O 19                   0.08         0.00          2.03230
              O 35 -- Fe 3                   0.24        -0.04          2.04456
              O 36 -- Fe 4                   0.24        -0.04          2.04465
              O 17 -- Fe 1                   0.22        -0.04          2.05327
              O 18 -- Fe 2                   0.22        -0.04          2.05342
              O 41 -- Fe 3                   0.26        -0.04          2.05573
              O 42 -- Fe 4                   0.26        -0.04          2.05579
              O 39 -- Fe 1                   0.27        -0.04          2.06241
              O 40 -- Fe 2                   0.27        -0.04          2.06263
              Li 6 -- O 18                   0.15         0.00          2.07035
              Li 5 -- O 17                   0.15         0.00          2.07050
              Li 1 -- O 20                   0.15         0.00          2.10262
              Li 2 -- O 19                   0.15         0.00          2.10271
              Li 2 -- O 38                   0.11         0.00          2.13042
              Li 1 -- O 37                   0.11         0.00          2.13046
              O 26 -- Fe 5                   0.19        -0.04          2.13169
              O 25 -- Fe 6                   0.19        -0.04          2.13197
              Li 3 -- O 3                    0.13         0.00          2.16297
              Li 4 -- O 4                    0.13         0.00          2.16302
              O 15 -- Fe 1                   0.24        -0.03          2.17787
              O 16 -- Fe 2                   0.24        -0.03          2.17805
              Li 3 -- O 22                   0.07         0.01          2.17892
              Li 4 -- O 21                   0.07         0.01          2.17896
              O 16 -- Fe 5                   0.22        -0.03          2.18829
              O 15 -- Fe 6                   0.22        -0.03          2.18865
              Li 4 -- O 35                   0.13         0.00          2.22858
              Li 3 -- O 36                   0.13         0.00          2.22862
              Li 4 -- O 23                   0.06         0.00          2.23670
              Li 3 -- O 24                   0.06         0.00          2.23673
              Li 3 -- O 40                   0.06         0.00          2.25283
              Li 4 -- O 39                   0.06         0.00          2.25299
              O 16 -- O 26                  -0.05        -0.00          2.47688
              O 15 -- O 25                  -0.05        -0.00          2.47721
              Li 3 -- O 7                    0.07         0.00          2.48503
              Li 4 -- O 8                    0.07         0.00          2.48513
              O 6  -- O 37                  -0.04        -0.00          2.67105
              O 5  -- O 38                  -0.04        -0.00          2.67108
              O 36 -- O 42                  -0.04        -0.00          2.68001
              O 35 -- O 41                  -0.04        -0.00          2.68003
              O 2  -- O 32                  -0.00        -0.00          2.71666
              O 1  -- O 31                  -0.00        -0.00          2.71668
              O 18 -- O 30                  -0.04        -0.00          2.71770
              O 17 -- O 29                  -0.04        -0.00          2.71773
              O 24 -- O 40                  -0.01        -0.00          2.72240
              O 23 -- O 39                  -0.01        -0.00          2.72251
              O 11 -- O 34                  -0.03        -0.00          2.74154
              O 12 -- O 33                  -0.03        -0.00          2.74158
              O 10 -- O 28                   0.00        -0.00          2.74708
              O 9  -- O 27                   0.00        -0.00          2.74715
              O 7  -- O 25                  -0.01        -0.00          2.74880
              O 8  -- O 26                  -0.01        -0.00          2.74887
              O 22 -- O 42                  -0.00        -0.00          2.75081
              O 21 -- O 41                  -0.00        -0.00          2.75109
              O 6  -- O 12                  -0.00        -0.00          2.75536
              O 5  -- O 11                  -0.00        -0.00          2.75544
              O 19 -- O 35                   0.00        -0.00          2.76282
              O 20 -- O 36                   0.00        -0.00          2.76286
              O 18 -- V 4                    0.02        -0.00          2.76455
              O 17 -- V 3                    0.02        -0.00          2.76460
              O 29 -- O 33                   0.00        -0.00          2.76983
              O 30 -- O 34                   0.00        -0.00          2.76985
              O 3  -- O 22                  -0.03        -0.00          2.77481
              O 4  -- O 21                  -0.03        -0.00          2.77481
              O 13 -- O 17                  -0.01        -0.00          2.77747
              O 1  -- O 37                  -0.00        -0.00          2.77766
              O 14 -- O 18                  -0.01        -0.00          2.77774
              O 2  -- O 38                  -0.00        -0.00          2.77776
              O 1  -- O 8                   -0.03        -0.00          2.78431
              O 2  -- O 7                   -0.03        -0.00          2.78436
              O 21 -- O 37                  -0.03        -0.00          2.79895
              O 22 -- O 38                  -0.03        -0.00          2.79918
              O 29 -- O 39                  -0.03        -0.00          2.80253
              O 30 -- O 40                  -0.03        -0.00          2.80275
              O 24 -- O 38                  -0.01        -0.00          2.80539
              O 23 -- O 37                  -0.01        -0.00          2.80547
              O 24 -- O 32                  -0.00         0.00          2.82249
              O 23 -- O 31                  -0.00         0.00          2.82253
              O 7  -- O 42                  -0.02        -0.00          2.82505
              O 8  -- O 41                  -0.02        -0.00          2.82513
              Li 1 -- Li 6                  -0.05         0.00          2.82909
              Li 2 -- Li 5                  -0.05         0.00          2.82909
              O 6  -- O 16                  -0.03        -0.00          2.83327
              O 5  -- O 15                  -0.03        -0.00          2.83363
              O 15 -- O 29                  -0.03        -0.00          2.83378
              O 16 -- O 30                  -0.03        -0.00          2.83402
              O 15 -- O 19                  -0.00        -0.00          2.83489
              O 16 -- O 20                  -0.00        -0.00          2.83498
              O 4  -- O 26                  -0.03        -0.00          2.83556
              O 3  -- O 25                  -0.03        -0.00          2.83562
              O 4  -- O 34                   0.00         0.00          2.84218
              O 3  -- O 33                   0.00         0.00          2.84224
              O 13 -- O 34                   0.00         0.00          2.84292
              O 14 -- O 33                   0.00         0.00          2.84301
              O 13 -- O 21                  -0.00        -0.00          2.84329
              O 14 -- O 22                  -0.00        -0.00          2.84329
              O 12 -- O 40                   0.00         0.00          2.84521
              O 11 -- O 39                   0.00         0.00          2.84530
              O 14 -- O 29                  -0.00        -0.00          2.84567
              O 13 -- O 30                  -0.00        -0.00          2.84577
              O 13 -- O 41                  -0.00         0.00          2.84690
              O 14 -- O 42                  -0.00         0.00          2.84705
              O 15 -- O 17                  -0.03        -0.00          2.84897
              O 16 -- O 18                  -0.03        -0.00          2.84925
              O 20 -- O 28                  -0.02        -0.00          2.85109
              O 19 -- O 27                  -0.02        -0.00          2.85111
              O 25 -- O 35                  -0.01        -0.00          2.85222
              O 26 -- O 36                  -0.01        -0.00          2.85228
              O 7  -- O 33                  -0.02        -0.00          2.85311
              O 8  -- O 34                  -0.02        -0.00          2.85319
              O 9  -- O 31                  -0.02        -0.00          2.85446
              O 10 -- O 32                  -0.02        -0.00          2.85457
              O 9  -- O 39                  -0.02        -0.00          2.85529
              O 10 -- O 40                  -0.02        -0.00          2.85543
              O 8  -- O 28                   0.00         0.00          2.85776
              O 7  -- O 27                   0.00         0.00          2.85778
              O 3  -- O 38                  -0.02        -0.00          2.85961
              O 4  -- O 37                  -0.02        -0.00          2.85964
              O 7  -- O 36                  -0.03        -0.00          2.85988
              O 8  -- O 35                  -0.03        -0.00          2.85989
              O 25 -- O 27                  -0.00        -0.00          2.86501
              O 26 -- O 28                  -0.00        -0.00          2.86509
              O 21 -- O 26                  -0.02        -0.00          2.87051
              O 22 -- O 25                  -0.02        -0.00          2.87059
              O 17 -- O 31                  -0.03        -0.00          2.87126
              O 18 -- O 32                  -0.03        -0.00          2.87151
              O 3  -- O 5                   -0.02        -0.00          2.87190
              O 4  -- O 6                   -0.02        -0.00          2.87194
              O 33 -- O 42                  -0.02        -0.00          2.87195
              O 34 -- O 41                  -0.02        -0.00          2.87214
              O 2  -- O 12                  -0.02        -0.00          2.87460
              O 1  -- O 11                  -0.02        -0.00          2.87469
              O 4  -- O 30                   0.00        -0.00          2.87742
              O 3  -- O 29                   0.00        -0.00          2.87749
              O 12 -- O 24                   0.00        -0.00          2.88029
              O 11 -- O 23                   0.00        -0.00          2.88032
              O 9  -- O 29                  -0.02        -0.00          2.88057
              O 10 -- O 30                  -0.02        -0.00          2.88074
              O 3  -- O 14                  -0.00         0.00          2.88782
              O 4  -- O 13                  -0.00         0.00          2.88782
              O 5  -- O 23                  -0.00         0.00          2.88832
              O 6  -- O 24                  -0.00         0.00          2.88851
              O 11 -- O 35                  -0.02        -0.00          2.89066
              O 12 -- O 36                  -0.02        -0.00          2.89071
              O 1  -- O 34                  -0.02        -0.00          2.89322
              O 2  -- O 33                  -0.02        -0.00          2.89328
              Li 4 -- V 9                   -0.14        -0.01          2.89560
              Li 3 -- V 10                  -0.14        -0.01          2.89569
              O 17 -- O 41                   0.00        -0.00          2.89682
              O 18 -- O 42                   0.00        -0.00          2.89697
              O 17 -- O 39                  -0.02        -0.00          2.91078
              O 18 -- O 40                  -0.02        -0.00          2.91102
              O 11 -- O 41                  -0.02        -0.00          2.92939
              O 12 -- O 42                  -0.02        -0.00          2.92944
              O 8  -- O 10                   0.01         0.00          2.93188
              O 7  -- O 9                    0.01         0.00          2.93198
              O 9  -- O 33                  -0.01        -0.00          2.93774
              O 10 -- O 34                  -0.01        -0.00          2.93779
              O 19 -- O 25                   0.00         0.00          2.94400
              O 20 -- O 26                   0.00         0.00          2.94409
              O 1  -- O 23                   0.00         0.00          2.95118
              O 2  -- O 24                   0.00         0.00          2.95121
              O 31 -- O 41                  -0.02        -0.00          2.97408
              O 32 -- O 42                  -0.02        -0.00          2.97416
              Li 5 -- V 3                   -0.14        -0.01          2.97495
              Li 6 -- V 4                   -0.14        -0.01          2.97496
              O 9  -- O 25                   0.00         0.00          2.97679
              O 10 -- O 26                   0.00         0.00          2.97691
              O 5  -- O 39                   0.00         0.00          2.98124
              O 6  -- O 40                   0.00         0.00          2.98132
              O 18 -- O 22                   0.00         0.00          2.98281
              O 17 -- O 21                   0.00         0.00          2.98297
              O 22 -- O 24                  -0.02         0.00          2.98417
              O 21 -- O 23                  -0.02         0.00          2.98418
              O 31 -- O 39                  -0.02        -0.00          2.98458
              O 32 -- O 40                  -0.02        -0.00          2.98473
              O 2  -- O 36                  -0.01        -0.00          2.99330
              O 1  -- O 35                  -0.01        -0.00          2.99337
================================================================================


Writing analysis data to ml_dos.castep_bin

Writing model to ml_dos.check
 
 A BibTeX formatted list of references used in this run has been written to 
 ml_dos.bib
 
Initialisation time =     12.80 s
Calculation time    =   6785.93 s
Finalisation time   =      6.01 s
Total time          =   6804.74 s
Peak Memory Use     = 5844440 kB
 
Overall parallel efficiency rating: Poor (41%)
 
Data was distributed by:-
G-vector (40-way); efficiency rating: Poor (43%)
