 +-------------------------------------------------+
 |                                                 |
 |      CCC   AA    SSS  TTTTT  EEEEE  PPPP        |
 |     C     A  A  S       T    E      P   P       |
 |     C     AAAA   SS     T    EEE    PPPP        |
 |     C     A  A     S    T    E      P           |
 |      CCC  A  A  SSS     T    EEEEE  P           |
 |                                                 |
 +-------------------------------------------------+
 |                                                 |
 | Welcome to Academic Release CASTEP version 25.12|
 | Ab Initio Total Energy Program                  |
 |                                                 |
 | Authors:                                        |
 | M. Segall, M. Probert, C. Pickard, P. Hasnip,   |
 | S. Clark, K. Refson, J. R. Yates,               |
 | A. Bartok-Partay, M. Payne                      |
 |                                                 |
 | Contributors:                                   |
 | P. Lindan, P. Haynes, J. White, V. Milman,      |
 | N. Govind, M. Gibson, P. Tulip, V. Cocula,      |
 | B. Montanari, D. Quigley, M. Glover,            |
 | L. Bernasconi, A. Perlov, M. Plummer,           |
 | E. McNellis, J. Meyer, J. Gale, D. Jochym       |
 | J. Aarons, B. Walker, R. Gillen, D. Jones       |
 | T. Green, I. J. Bush, C. J. Armstrong,          |
 | E. J. Higgins, E. L. Brown, M. S. McFly,        |
 | J. Wilkins, B-C. Shih, P. J. P. Byrne,          |
 | R. J. Maurer, J. C. Womack, J. Dziedzic,        |
 | L. LeBlanc, T. K. Stenczel, J. Kermode,         |
 | S. Sturniolo, B. Shi, B. Durham, M. Evans,      |
 | M. J. Smith, A. Tamerus, Z. Hawkhead,           |
 | V. Ravindran, T. Hollins, S. A. Joyce,          |
 | R. T. Strong, A. M. Reilly, S. J. Donaldson,    |
 | J. C. A. Prentice                               |
 |                                                 |
 | Copyright (c) 2000 - 2024                       |
 |                                                 |
 |     Distributed under license from Cambridge    |
 |     Enterprise for academic use only.           |
 |                                                 |
 | Please cite                                     |
 |                                                 |
 |     "First principles methods using CASTEP"     |
 |                                                 |
 |         Zeitschrift fuer Kristallographie       |
 |           220(5-6) pp. 567-570 (2005)           |
 |                                                 |
 | S. J. Clark, M. D. Segall, C. J. Pickard,       |
 | P. J. Hasnip, M. J. Probert, K. Refson,         |
 | M. C. Payne                                     |
 |                                                 |
 |       in all publications arising from          |
 |              your use of CASTEP                 |
 |                                                 |
 +-------------------------------------------------+
 |                                                 |
 |              http://www.castep.org              |
 |                                                 |
 +-------------------------------------------------+



 Compiled for linux_x86_64_gfortran10 on Sun, 13 Jul 2025 14:49:40 -0400
 from code version git version unavailable
 Compiler: GNU Fortran 13.3.0; Optimisation: fast
 Comms   : Open MPI v5.0.3
 MATHLIBS: flexiblas (IMKL) (LAPACK version 3.12.0)
 FFT Lib : fftw3 version fftw-3.3.10-sse2-avx-avx2-avx2_128
 Fundamental constants values: CODATA 2018

 Run started: Thu, 30 Oct 2025 02:53:58 -0400

 Atomic calculation performed for Li: 1s2 2s1

 Converged in 47 iterations to an ae energy of -202.784 eV

   ============================================================                
   | Pseudopotential Report - Date of generation 30-10-2025   |                
   ------------------------------------------------------------                
   | Element: Li Ionic charge:  3.00 Level of theory: PBE     |                
   | Atomic Solver: Koelling-Harmon                           |                
   |                                                          |                
   |               Reference Electronic Structure             |                
   |         Orbital         Occupation         Energy        |                
   |            1s              2.000           -1.906        |                
   |            2s              1.000           -0.106        |                
   |                                                          |                
   |                 Pseudopotential Definition               |                
   |        Beta     l      e      Rc     scheme   norm       |                
   |          1      0   -1.906   1.001     qc      0         |                
   |          2      0   -0.106   1.001     qc      0         |                
   |          3      0    0.250   1.001     qc      0         |                
   |         loc     1    0.000   1.001     pn      0         |                
   |                                                          |                
   | Augmentation charge Rinner = 0.699                       |                
   | No partial core correction                               |                
   ------------------------------------------------------------                
   | "1|1.0|14|16|18|10U:20(qc=7)"                            |                
   ------------------------------------------------------------                
   |      Author: Chris J. Pickard, Cambridge University      |                
   ============================================================                

 Atomic calculation performed for O: 1s2 2s2 2p4

 Converged in 61 iterations to an ae energy of -2040.902 eV

   ============================================================                
   | Pseudopotential Report - Date of generation 30-10-2025   |                
   ------------------------------------------------------------                
   | Element: O Ionic charge:  6.00 Level of theory: PBE      |                
   | Atomic Solver: Koelling-Harmon                           |                
   |                                                          |                
   |               Reference Electronic Structure             |                
   |         Orbital         Occupation         Energy        |                
   |            2s              2.000           -0.881        |                
   |            2p              4.000           -0.332        |                
   |                                                          |                
   |                 Pseudopotential Definition               |                
   |        Beta     l      e      Rc     scheme   norm       |                
   |          1      0   -0.881   1.100     qc      0         |                
   |          2      0    0.250   1.100     qc      0         |                
   |          3      1   -0.332   1.100     qc      0         |                
   |          4      1    0.250   1.100     qc      0         |                
   |         loc     2    0.000   1.100     pn      0         |                
   |                                                          |                
   | Augmentation charge Rinner = 0.769                       |                
   | Partial core correction Rc = 0.769                       |                
   ------------------------------------------------------------                
   | "2|1.1|17|20|23|20:21(qc=8)"                             |                
   ------------------------------------------------------------                
   |      Author: Chris J. Pickard, Cambridge University      |                
   ============================================================                

 Atomic calculation performed for P: 1s2 2s2 2p6 3s2 3p3

 Converged in 56 iterations to an ae energy of -9303.626 eV

   ============================================================                
   | Pseudopotential Report - Date of generation 30-10-2025   |                
   ------------------------------------------------------------                
   | Element: P Ionic charge:  5.00 Level of theory: PBE      |                
   | Atomic Solver: Koelling-Harmon                           |                
   |                                                          |                
   |               Reference Electronic Structure             |                
   |         Orbital         Occupation         Energy        |                
   |            3s              2.000           -0.513        |                
   |            3p              3.000           -0.202        |                
   |                                                          |                
   |                 Pseudopotential Definition               |                
   |        Beta     l      e      Rc     scheme   norm       |                
   |          1      0   -0.513   1.807     qc      0         |                
   |          2      0    0.250   1.807     qc      0         |                
   |          3      1   -0.202   1.807     qc      0         |                
   |          4      1    0.250   1.807     qc      0         |                
   |          5      2    0.000   1.807     qc      0         |                
   |          6      2    0.250   1.807     qc      0         |                
   |         loc     3    0.000   1.807     pn      0         |                
   |                                                          |                
   | Augmentation charge Rinner = 1.263                       |                
   | Partial core correction Rc = 1.263                       |                
   ------------------------------------------------------------                
   | "3|1.8|4|4|5|30:31:32"                                   |                
   ------------------------------------------------------------                
   |      Author: Chris J. Pickard, Cambridge University      |                
   ============================================================                

 Atomic calculation performed for Ge: 1s2 2s2 2p6 3s2 3p6 3d10 4s2 4p2

 Converged in 85 iterations to an ae energy of -57112.123 eV

   ============================================================                
   | Pseudopotential Report - Date of generation 30-10-2025   |                
   ------------------------------------------------------------                
   | Element: Ge Ionic charge: 14.00 Level of theory: PBE     |                
   | Atomic Solver: Koelling-Harmon                           |                
   |                                                          |                
   |               Reference Electronic Structure             |                
   |         Orbital         Occupation         Energy        |                
   |            3d             10.000           -1.077        |                
   |            4s              2.000           -0.431        |                
   |            4p              2.000           -0.143        |                
   |                                                          |                
   |                 Pseudopotential Definition               |                
   |        Beta     l      e      Rc     scheme   norm       |                
   |          1      0   -0.431   1.999     qc      0         |                
   |          2      0    0.250   1.999     qc      0         |                
   |          3      1   -0.143   1.999     qc      0         |                
   |          4      1    0.250   1.999     qc      0         |                
   |          5      2   -1.077   1.999     qc      0         |                
   |          6      2    0.250   1.999     qc      0         |                
   |         loc     3    0.000   1.999     pn      0         |                
   |                                                          |                
   | Augmentation charge Rinner = 1.397                       |                
   | Partial core correction Rc = 1.397                       |                
   ------------------------------------------------------------                
   | "3|2.0|10|12|13|40:41:32(qc=6)"                          |                
   ------------------------------------------------------------                
   |      Author: Chris J. Pickard, Cambridge University      |                
   ============================================================                

 Pseudo atomic calculation performed for Li 1s2 2s1

 Converged in 18 iterations to a total energy of -200.5098 eV

 Pseudo atomic calculation performed for O 2s2 2p4

 Converged in 24 iterations to a total energy of -432.3399 eV

 Pseudo atomic calculation performed for P 3s2 3p3

 Converged in 18 iterations to a total energy of -214.2237 eV

 Pseudo atomic calculation performed for Ge 3d10 4s2 4p2

 Converged in 28 iterations to a total energy of -2533.5726 eV
 Calculation parallelised over 12 processes.
 Data is distributed by G-vector(3-way) and k-point(4-way)

 ************************************ Title ************************************
 

 ***************************** General Parameters ******************************
  
 output verbosity                               : normal  (1)
 write checkpoint data to                       : ml_dos.check
 type of calculation                            : Electronic Spectroscopy
 stress calculation                             : off
 density difference calculation                 : off
 electron localisation func (ELF) calculation   : off
 Hirshfeld analysis                             : off
 polarisation (Berry phase) analysis            : off
 molecular orbital projected DOS                : off
 deltaSCF calculation                           : off
 unlimited duration calculation
 timing information                             : on
 memory usage estimate                          : on
 write extra output files                       : on
 write final potential to formatted file        : off
 write final density to formatted file          : off
 write BibTeX reference list                    : on
 write OTFG pseudopotential files               : on
 write electrostatic potential file             : on
 write bands file                               : on
 checkpoint writing                             : both castep_bin and check files
  
 output         length unit                     : A
 output           mass unit                     : amu
 output           time unit                     : ps
 output         charge unit                     : e
 output           spin unit                     : hbar/2
 output         energy unit                     : eV
 output          force unit                     : eV/A
 output       velocity unit                     : A/ps
 output       pressure unit                     : GPa
 output     inv_length unit                     : 1/A
 output      frequency unit                     : cm-1
 output force constant unit                     : eV/A**2
 output         volume unit                     : A**3
 output   IR intensity unit                     : (D/A)**2/amu
 output         dipole unit                     : D
 output         efield unit                     : eV/A/e
 output        entropy unit                     : J/mol/K
 output    efield chi2 unit                     : pm/V
  
 wavefunctions paging                           : none
 random number generator seed                   :   25358062
 data distribution                              : optimal for this architecture
 optimization strategy                          : balance speed and memory

 *********************** Exchange-Correlation Parameters ***********************
  
 using functional                               : Perdew Burke Ernzerhof
 relativistic treatment                         : Koelling-Harmon
 DFT+D: Semi-empirical dispersion correction    : off

 ************************* Pseudopotential Parameters **************************
  
 pseudopotential representation                 : reciprocal space
 <beta|phi> representation                      : reciprocal space
 spin-orbit coupling                            : off

 **************************** Basis Set Parameters *****************************
  
 plane wave basis set cut-off                   :   900.0000   eV
 size of standard grid                          :     2.0000
 size of   fine   gmax                          :    30.7390   1/A
 finite basis set correction                    : none

 **************************** Electronic Parameters ****************************
  
 number of  electrons                           :  236.0    
 net charge of system                           :  0.000    
 treating system as non-spin-polarized
 number of bands                                :        142

 ********************* Electronic Minimization Parameters **********************
  
 Method: Treating system as metallic with density mixing treatment of electrons,
         and number of  SD  steps               :          1
         and number of  CG  steps               :          4
  
 total energy / atom convergence tol.           : 0.1000E-05   eV
 eigen-energy convergence tolerance             : 0.3051E-06   eV
 max force / atom convergence tol.              : ignored
 convergence tolerance window                   :          3   cycles
 max. number of SCF cycles                      :        100
 number of fixed-spin iterations                :         10
 smearing scheme                                : Gaussian
 smearing width                                 : 0.2000       eV
 Fermi energy convergence tolerance             : 0.2721E-13   eV
 periodic dipole correction                     : NONE

 ************************** Density Mixing Parameters **************************
  
 density-mixing scheme                          : Pulay
 max. length of mixing history                  :         20
 charge density mixing amplitude                : 0.2000    
 cut-off energy for mixing                      :  900.0       eV

 *********************** Population Analysis Parameters ************************
  
 Population analysis with cutoff                :  3.000       A
 Population analysis output                     : summary and pdos components
 Partial DOS weights calculated

 ********************* Electronic Spectroscopy Parameters **********************
  
 electronic spectroscopy with theory level      : DFT       
 spectroscopy calculation                       : density of states
 max. number of iterations                      :         60
 max. steps per iteration                       :          5
 number of bands / k-point                      :        202
 band convergence tolerance                     : 0.1000E-05   eV
 write orbitals file                            : off

 *******************************************************************************
  

                           -------------------------------
                                      Unit Cell
                           -------------------------------
        Real Lattice(A)                      Reciprocal Lattice(1/A)
     8.2504270     0.0000000     0.0000000        0.761558803  -0.431576587  -0.306239005
     4.0677540     7.1779470     0.0000000        0.000000000   0.875345737  -0.306238917
     4.0677540     2.3703270     6.7752840        0.000000000   0.000000000   0.927368551

                       Lattice parameters(A)       Cell Angles
                    a =      8.250427          alpha =   60.459706
                    b =      8.250427          beta  =   60.459703
                    c =      8.250427          gamma =   60.459703

                       Current cell volume =           401.239959       A**3
                                   density =             2.178622   AMU/A**3
                                           =             3.617687     g/cm^3

                           -------------------------------
                                     Cell Contents
                           -------------------------------
                         Total number of ions in cell =   36
                      Total number of species in cell =    4
                        Max number of any one species =   24

            xxxxxxxxxxxxxxxxxxxxxxxxxxxxxxxxxxxxxxxxxxxxxxxxxxxxxxxxxxxx
            x  Element    Atom        Fractional coordinates of atoms  x
            x            Number           u          v          w      x
            x----------------------------------------------------------x
            x  Li           1         0.500000   0.500000   0.500000   x 
            x  Li           2         1.000000   1.000000   1.000000   x 
            x  O            1         0.501807   0.132267   0.300916   x 
            x  O            2         0.132268   0.300916   0.501807   x 
            x  O            3         0.300917   0.501804   0.132270   x 
            x  O            4         0.001807   0.800917   0.632268   x 
            x  O            5         0.800916   0.632267   0.001807   x 
            x  O            6         0.632269   0.001804   0.800917   x 
            x  O            7         0.498192   0.867733   0.699085   x 
            x  O            8         0.867731   0.699084   0.498192   x 
            x  O            9         0.699083   0.498194   0.867730   x 
            x  O           10         0.998192   0.199084   0.367733   x 
            x  O           11         0.199085   0.367737   0.998190   x 
            x  O           12         0.367733   0.998193   0.199084   x 
            x  O           13         0.443976   0.234611   0.581536   x 
            x  O           14         0.234611   0.581538   0.443977   x 
            x  O           15         0.581540   0.443979   0.234610   x 
            x  O           16         0.943979   0.081538   0.734610   x 
            x  O           17         0.081535   0.734611   0.943976   x 
            x  O           18         0.734610   0.943979   0.081538   x 
            x  O           19         0.556023   0.765389   0.418463   x 
            x  O           20         0.765389   0.418462   0.556021   x 
            x  O           21         0.418461   0.556020   0.765390   x 
            x  O           22         0.056020   0.918458   0.265391   x 
            x  O           23         0.918460   0.265390   0.056022   x 
            x  O           24         0.265391   0.056020   0.918459   x 
            x  P            1         0.537461   0.962538   0.250001   x 
            x  P            2         0.962539   0.250001   0.537461   x 
            x  P            3         0.250000   0.537465   0.962540   x 
            x  P            4         0.037460   0.749998   0.462543   x 
            x  P            5         0.749999   0.462541   0.037459   x 
            x  P            6         0.462542   0.037462   0.749997   x 
            x  Ge           1         0.362038   0.362036   0.362038   x 
            x  Ge           2         0.862037   0.862037   0.862040   x 
            x  Ge           3         0.637962   0.637963   0.637963   x 
            x  Ge           4         0.137963   0.137963   0.137962   x 
            xxxxxxxxxxxxxxxxxxxxxxxxxxxxxxxxxxxxxxxxxxxxxxxxxxxxxxxxxxxx


                         No user defined ionic velocities

                           -------------------------------
                                   Details of Species
                           -------------------------------

                               Mass of species in AMU
                                    Li    6.9410000
                                    O   15.9994000
                                    P   30.9737600
                                    Ge   72.6100000

                          Electric Quadrupole Moment (Barn)
                                    Li   -0.0401000 Isotope   7
                                    O   -0.0255800 Isotope  17
                                    P    1.0000000 No Isotope Defined
                                    Ge   -0.1730000 Isotope  73

                          Files used for pseudopotentials:
                                    Li 1|1.0|14|16|18|10U:20(qc=7)
                                    O 2|1.1|17|20|23|20:21(qc=8)
                                    P 3|1.8|4|4|5|30:31:32
                                    Ge 3|2.0|10|12|13|40:41:32(qc=6)

                           -------------------------------
                              k-Points For BZ Sampling
                           -------------------------------
                       MP grid size for SCF calculation is  4  4  4
                            with an offset of   0.000  0.000  0.000
                       Number of kpoints used =            32

                           -------------------------------
                               Symmetry and Constraints
                           -------------------------------

                      Maximum deviation from symmetry =  0.00000         ANG

                      Number of symmetry operations   =           1
                      Number of ionic constraints     =           3
                      Point group of crystal =     1: C1, 1, 1
                      Space group of crystal =   167: R-3c, -R 3 2"c

             Set iprint > 1 for details on symmetry rotations/translations

                         Centre of mass is constrained
             Set iprint > 2 for details of linear ionic constraints

                         Number of cell constraints= 0
                         Cell constraints are:  1 2 3 4 5 6

                         External pressure/stress (GPa)
                          0.00000   0.00000   0.00000
                                    0.00000   0.00000
                                              0.00000
 
+---------------- MEMORY AND SCRATCH DISK ESTIMATES PER PROCESS --------------+
|                                                     Memory          Disk    |
| Baseline code, static data and system overhead      808.0 MB         0.0 MB |
| BLAS internal memory storage                          0.0 MB         0.0 MB |
| Model and support data                             1074.9 MB         0.0 MB |
| Electronic energy minimisation requirements         378.5 MB         0.0 MB |
| Force calculation requirements                       25.7 MB         0.0 MB |
|                                               ----------------------------- |
| Approx. total storage required per process         2261.3 MB         0.0 MB |
|                                                                             |
| Requirements will fluctuate during execution and may exceed these estimates |
+-----------------------------------------------------------------------------+
Calculating approximate eigenstates for fixed initial Hamiltonian
Cut-off for approx. calculation is  108.886 eV
Improving approx. states at cut-off of  450.000 eV
Resetting cut-off to  900.000 eV
Calculating total energy with cut-off of  900.000 eV.
------------------------------------------------------------------------ <-- SCF
SCF loop      Energy           Fermi           Energy gain       Timer   <-- SCF
                               energy          per atom          (sec)   <-- SCF
------------------------------------------------------------------------ <-- SCF
Initial  -2.19203150E+004  0.00000000E+000                        94.03  <-- SCF
      1  -2.24625973E+004  5.00437471E+000   1.50633956E+001     207.21  <-- SCF
      2  -2.24638159E+004  5.00763900E+000   3.38521621E-002     308.39  <-- SCF
      3  -2.24505244E+004  5.22035369E+000  -3.69209534E-001     385.38  <-- SCF
      4  -2.24439081E+004  5.51838458E+000  -1.83786716E-001     499.51  <-- SCF
      5  -2.24440171E+004  5.50678528E+000   3.02935538E-003     614.68  <-- SCF
      6  -2.24440092E+004  5.53840482E+000  -2.20586826E-004     685.61  <-- SCF
      7  -2.24440274E+004  5.59094369E+000   5.07023857E-004     758.30  <-- SCF
      8  -2.24440281E+004  5.59475071E+000   1.78375499E-005     827.22  <-- SCF
      9  -2.24440293E+004  5.59919537E+000   3.34563939E-005     896.65  <-- SCF
     10  -2.24440291E+004  5.60068723E+000  -6.58375284E-006     948.33  <-- SCF
     11  -2.24440291E+004  5.60251217E+000   2.07382555E-006    1013.90  <-- SCF
     12  -2.24440290E+004  5.60158542E+000  -2.31286843E-006    1060.74  <-- SCF
     13  -2.24440290E+004  5.60116105E+000  -2.24370999E-007    1106.14  <-- SCF
     14  -2.24440290E+004  5.60048038E+000  -1.03486233E-007    1150.10  <-- SCF
------------------------------------------------------------------------ <-- SCF
 
Final energy, E             =  -22444.02903786     eV
Final free energy (E-TS)    =  -22444.02903786     eV
(energies not corrected for finite basis set)
 
NB est. 0K energy (E-0.5TS)      =  -22444.02903786     eV
 

Writing analysis data to ml_dos.castep_bin

Writing model to ml_dos.check
 
+---------------- MEMORY AND SCRATCH DISK ESTIMATES PER PROCESS --------------+
|                                                     Memory          Disk    |
|                                               ----------------------------- |
| Approx. total storage required per process         1064.7 MB         0.0 MB |
|                                                                             |
| Requirements will fluctuate during execution and may exceed these estimates |
+-----------------------------------------------------------------------------+
 
  =====================================================================
  +                                                                   +
  +                 Calculation of Spectral Properties                +
  +                                                                   +
  + Calculation re-parallelised over 12 processes.                    +
  + There are 32 k-points distributed across 4 k-point groups.        +
  + Data distributed by G-vector(3-way), k-point(4-way), band(1-way)  +
  + Data distributed by G-vector(3-way), k-point(4-way)               +
  +                                                                   +
  =====================================================================

 Pseudo atomic calculation performed for Li 1s2 2s1

 Converged in 18 iterations to a total energy of -200.5098 eV

 Pseudo atomic calculation performed for O 2s2 2p4

 Converged in 24 iterations to a total energy of -432.3399 eV

 Pseudo atomic calculation performed for P 3s2 3p3

 Converged in 18 iterations to a total energy of -214.2237 eV

 Pseudo atomic calculation performed for Ge 3d10 4s2 4p2

 Converged in 28 iterations to a total energy of -2533.5726 eV
  Starting k-point:        1 of        8 Time:      0.00 sec  |<-- SPEC

 Pseudo atomic calculation performed for Li 1s2 2s1

 Converged in 18 iterations to a total energy of -200.5098 eV

 Pseudo atomic calculation performed for O 2s2 2p4

 Converged in 24 iterations to a total energy of -432.3399 eV

 Pseudo atomic calculation performed for P 3s2 3p3

 Converged in 18 iterations to a total energy of -214.2237 eV

 Pseudo atomic calculation performed for Ge 3d10 4s2 4p2

 Converged in 28 iterations to a total energy of -2533.5726 eV
  Starting k-point:        2 of        8 Time:     56.64 sec  |<-- SPEC

 Pseudo atomic calculation performed for Li 1s2 2s1

 Converged in 18 iterations to a total energy of -200.5098 eV

 Pseudo atomic calculation performed for O 2s2 2p4

 Converged in 24 iterations to a total energy of -432.3399 eV

 Pseudo atomic calculation performed for P 3s2 3p3

 Converged in 18 iterations to a total energy of -214.2237 eV

 Pseudo atomic calculation performed for Ge 3d10 4s2 4p2

 Converged in 28 iterations to a total energy of -2533.5726 eV
  Starting k-point:        3 of        8 Time:    114.12 sec  |<-- SPEC

 Pseudo atomic calculation performed for Li 1s2 2s1

 Converged in 18 iterations to a total energy of -200.5098 eV

 Pseudo atomic calculation performed for O 2s2 2p4

 Converged in 24 iterations to a total energy of -432.3399 eV

 Pseudo atomic calculation performed for P 3s2 3p3

 Converged in 18 iterations to a total energy of -214.2237 eV

 Pseudo atomic calculation performed for Ge 3d10 4s2 4p2

 Converged in 28 iterations to a total energy of -2533.5726 eV
  Starting k-point:        4 of        8 Time:    170.85 sec  |<-- SPEC

 Pseudo atomic calculation performed for Li 1s2 2s1

 Converged in 18 iterations to a total energy of -200.5098 eV

 Pseudo atomic calculation performed for O 2s2 2p4

 Converged in 24 iterations to a total energy of -432.3399 eV

 Pseudo atomic calculation performed for P 3s2 3p3

 Converged in 18 iterations to a total energy of -214.2237 eV

 Pseudo atomic calculation performed for Ge 3d10 4s2 4p2

 Converged in 28 iterations to a total energy of -2533.5726 eV
  Starting k-point:        5 of        8 Time:    228.99 sec  |<-- SPEC

 Pseudo atomic calculation performed for Li 1s2 2s1

 Converged in 18 iterations to a total energy of -200.5098 eV

 Pseudo atomic calculation performed for O 2s2 2p4

 Converged in 24 iterations to a total energy of -432.3399 eV

 Pseudo atomic calculation performed for P 3s2 3p3

 Converged in 18 iterations to a total energy of -214.2237 eV

 Pseudo atomic calculation performed for Ge 3d10 4s2 4p2

 Converged in 28 iterations to a total energy of -2533.5726 eV
  Starting k-point:        6 of        8 Time:    286.36 sec  |<-- SPEC

 Pseudo atomic calculation performed for Li 1s2 2s1

 Converged in 18 iterations to a total energy of -200.5098 eV

 Pseudo atomic calculation performed for O 2s2 2p4

 Converged in 24 iterations to a total energy of -432.3399 eV

 Pseudo atomic calculation performed for P 3s2 3p3

 Converged in 18 iterations to a total energy of -214.2237 eV

 Pseudo atomic calculation performed for Ge 3d10 4s2 4p2

 Converged in 28 iterations to a total energy of -2533.5726 eV
  Starting k-point:        7 of        8 Time:    344.02 sec  |<-- SPEC

 Pseudo atomic calculation performed for Li 1s2 2s1

 Converged in 18 iterations to a total energy of -200.5098 eV

 Pseudo atomic calculation performed for O 2s2 2p4

 Converged in 24 iterations to a total energy of -432.3399 eV

 Pseudo atomic calculation performed for P 3s2 3p3

 Converged in 18 iterations to a total energy of -214.2237 eV

 Pseudo atomic calculation performed for Ge 3d10 4s2 4p2

 Converged in 28 iterations to a total energy of -2533.5726 eV
  Starting k-point:        8 of        8 Time:    401.60 sec  |<-- SPEC

 Pseudo atomic calculation performed for Li 1s2 2s1

 Converged in 18 iterations to a total energy of -200.5098 eV

 Pseudo atomic calculation performed for O 2s2 2p4

 Converged in 24 iterations to a total energy of -432.3399 eV

 Pseudo atomic calculation performed for P 3s2 3p3

 Converged in 18 iterations to a total energy of -214.2237 eV

 Pseudo atomic calculation performed for Ge 3d10 4s2 4p2

 Converged in 28 iterations to a total energy of -2533.5726 eV
  Check-pointing spectral run                                 |<-- SPEC
  Total time to compute matrix elements            458.74 sec |<-- SPEC
  
  + Calculation re-parallelised over 12 processes.                    +
  + Data distributed by G-vector(3-way), k-point(4-way)               +

 ************************** Forces **************************
 *                                                          *
 *               Cartesian components (eV/A)                *
 * -------------------------------------------------------- *
 *                         x            y            z      *
 *                                                          *
 * Li              1     -0.00000      0.00000     -0.00002 *
 * Li              2      0.00005      0.00005      0.00002 *
 * O               1      0.75916      0.28310      0.23512 *
 * O               2      0.62051      0.39381      0.41397 *
 * O               3      0.64864      0.50522      0.18934 *
 * O               4      0.75901      0.31539      0.18987 *
 * O               5      0.64874      0.34595      0.41384 *
 * O               6      0.62060      0.52096      0.23496 *
 * O               7     -0.75916     -0.28355     -0.23532 *
 * O               8     -0.62002     -0.39385     -0.41386 *
 * O               9     -0.64830     -0.50481     -0.18913 *
 * O              10     -0.75898     -0.31541     -0.18957 *
 * O              11     -0.64910     -0.34629     -0.41352 *
 * O              12     -0.62080     -0.52072     -0.23516 *
 * O              13      0.27701      0.70284     -0.55832 *
 * O              14      0.74781     -0.56216      0.08474 *
 * O              15     -0.12096      0.38618      0.84808 *
 * O              16      0.27645     -0.29501      0.84772 *
 * O              17     -0.11973      0.92773      0.08462 *
 * O              18      0.74764     -0.10600     -0.55843 *
 * O              19     -0.27668     -0.70280      0.55834 *
 * O              20     -0.74771      0.56228     -0.08431 *
 * O              21      0.12086     -0.38581     -0.84808 *
 * O              22     -0.27590      0.29573     -0.84809 *
 * O              23      0.12084     -0.92777     -0.08445 *
 * O              24     -0.74751      0.10644      0.55890 *
 * P               1     -0.24612      0.42245     -0.00005 *
 * P               2      0.24590     -0.13968     -0.39876 *
 * P               3     -0.00068     -0.28374      0.39858 *
 * P               4     -0.24656      0.13936      0.39786 *
 * P               5     -0.00011      0.28224     -0.39862 *
 * P               6      0.24565     -0.42236      0.00056 *
 * Ge              1     -0.67381     -0.39252     -0.27884 *
 * Ge              2     -0.67429     -0.39266     -0.27909 *
 * Ge              3      0.67377      0.39268      0.27860 *
 * Ge              4      0.67381      0.39272      0.27848 *
 *                                                          *
 ************************************************************

 Pseudo atomic calculation performed for Li 1s2 2s1

 Converged in 18 iterations to a total energy of -200.5098 eV

 Pseudo atomic calculation performed for O 2s2 2p4

 Converged in 24 iterations to a total energy of -432.3399 eV

 Pseudo atomic calculation performed for P 3s2 3p3

 Converged in 18 iterations to a total energy of -214.2237 eV

 Pseudo atomic calculation performed for Ge 3d10 4s2 4p2

 Converged in 28 iterations to a total energy of -2533.5726 eV
Charge spilling parameter for spin component 1 = 1.00%

            Orbital Populations       
     Ion    Atom   Orbital             Charge
  -------------------------------------------
     Li     1      S                    2.001
     Li     1      S                    0.085
     Li     1      Px                   0.020
     Li     1      Py                   0.048
     Li     1      Pz                   0.055
     Li     2      S                    2.001
     Li     2      S                    0.085
     Li     2      Px                   0.020
     Li     2      Py                   0.048
     Li     2      Pz                   0.055
      O     1      S                    1.801
      O     1      Px                   1.830
      O     1      Py                   1.553
      O     1      Pz                   1.847
      O     2      S                    1.801
      O     2      Px                   1.560
      O     2      Py                   1.855
      O     2      Pz                   1.815
      O     3      S                    1.801
      O     3      Px                   1.751
      O     3      Py                   1.852
      O     3      Pz                   1.627
      O     4      S                    1.802
      O     4      Px                   1.830
      O     4      Py                   1.773
      O     4      Pz                   1.627
      O     5      S                    1.801
      O     5      Px                   1.751
      O     5      Py                   1.664
      O     5      Pz                   1.815
      O     6      S                    1.802
      O     6      Px                   1.560
      O     6      Py                   1.823
      O     6      Pz                   1.847
      O     7      S                    1.801
      O     7      Px                   1.830
      O     7      Py                   1.553
      O     7      Pz                   1.847
      O     8      S                    1.801
      O     8      Px                   1.560
      O     8      Py                   1.855
      O     8      Pz                   1.815
      O     9      S                    1.801
      O     9      Px                   1.751
      O     9      Py                   1.852
      O     9      Pz                   1.627
      O    10      S                    1.801
      O    10      Px                   1.830
      O    10      Py                   1.773
      O    10      Pz                   1.627
      O    11      S                    1.801
      O    11      Px                   1.751
      O    11      Py                   1.664
      O    11      Pz                   1.815
      O    12      S                    1.801
      O    12      Px                   1.560
      O    12      Py                   1.823
      O    12      Pz                   1.847
      O    13      S                    1.825
      O    13      Px                   1.797
      O    13      Py                   1.746
      O    13      Pz                   1.644
      O    14      S                    1.825
      O    14      Px                   1.759
      O    14      Py                   1.571
      O    14      Pz                   1.858
      O    15      S                    1.825
      O    15      Px                   1.688
      O    15      Py                   1.853
      O    15      Pz                   1.647
      O    16      S                    1.825
      O    16      Px                   1.797
      O    16      Py                   1.743
      O    16      Pz                   1.647
      O    17      S                    1.825
      O    17      Px                   1.688
      O    17      Py                   1.641
      O    17      Pz                   1.858
      O    18      S                    1.825
      O    18      Px                   1.759
      O    18      Py                   1.785
      O    18      Pz                   1.644
      O    19      S                    1.825
      O    19      Px                   1.797
      O    19      Py                   1.746
      O    19      Pz                   1.644
      O    20      S                    1.825
      O    20      Px                   1.759
      O    20      Py                   1.571
      O    20      Pz                   1.859
      O    21      S                    1.825
      O    21      Px                   1.688
      O    21      Py                   1.852
      O    21      Pz                   1.648
      O    22      S                    1.825
      O    22      Px                   1.797
      O    22      Py                   1.743
      O    22      Pz                   1.647
      O    23      S                    1.825
      O    23      Px                   1.688
      O    23      Py                   1.641
      O    23      Pz                   1.859
      O    24      S                    1.825
      O    24      Px                   1.759
      O    24      Py                   1.785
      O    24      Pz                   1.644
      P     1      S                    0.855
      P     1      Px                   0.573
      P     1      Py                   0.595
      P     1      Pz                   0.612
      P     2      S                    0.855
      P     2      Px                   0.573
      P     2      Py                   0.609
      P     2      Pz                   0.598
      P     3      S                    0.855
      P     3      Px                   0.591
      P     3      Py                   0.591
      P     3      Pz                   0.598
      P     4      S                    0.855
      P     4      Px                   0.573
      P     4      Py                   0.609
      P     4      Pz                   0.598
      P     5      S                    0.855
      P     5      Px                   0.591
      P     5      Py                   0.591
      P     5      Pz                   0.598
      P     6      S                    0.855
      P     6      Px                   0.573
      P     6      Py                   0.595
      P     6      Pz                   0.612
     Ge     1      Dzz                  2.000
     Ge     1      Dzy                  2.000
     Ge     1      Dzx                  2.000
     Ge     1      Dxx-yy               2.000
     Ge     1      Dxy                  2.000
     Ge     1      S                    0.813
     Ge     1      Px                   0.442
     Ge     1      Py                   0.427
     Ge     1      Pz                   0.423
     Ge     1      S                   -0.298
     Ge     2      Dzz                  2.000
     Ge     2      Dzy                  2.000
     Ge     2      Dzx                  2.000
     Ge     2      Dxx-yy               2.000
     Ge     2      Dxy                  2.000
     Ge     2      S                    0.813
     Ge     2      Px                   0.442
     Ge     2      Py                   0.427
     Ge     2      Pz                   0.423
     Ge     2      S                   -0.298
     Ge     3      Dzz                  2.000
     Ge     3      Dzy                  2.000
     Ge     3      Dzx                  2.000
     Ge     3      Dxx-yy               2.000
     Ge     3      Dxy                  2.000
     Ge     3      S                    0.813
     Ge     3      Px                   0.442
     Ge     3      Py                   0.427
     Ge     3      Pz                   0.423
     Ge     3      S                   -0.298
     Ge     4      Dzz                  2.000
     Ge     4      Dzy                  2.000
     Ge     4      Dzx                  2.000
     Ge     4      Dxx-yy               2.000
     Ge     4      Dxy                  2.000
     Ge     4      S                    0.813
     Ge     4      Px                   0.442
     Ge     4      Py                   0.427
     Ge     4      Pz                   0.423
     Ge     4      S                   -0.298
  -------------------------------------------
                           Total:     235.994
  -------------------------------------------

     Atomic Populations (Mulliken)
     -----------------------------
Species          Ion     s       p       d       f      Total   Charge (e)
==========================================================================
  Li              1     2.086   0.123   0.000   0.000   2.209     0.791
  Li              2     2.086   0.123   0.000   0.000   2.209     0.791
  O               1     1.801   5.230   0.000   0.000   7.032    -1.032
  O               2     1.801   5.230   0.000   0.000   7.031    -1.031
  O               3     1.801   5.230   0.000   0.000   7.031    -1.031
  O               4     1.802   5.230   0.000   0.000   7.031    -1.031
  O               5     1.801   5.230   0.000   0.000   7.031    -1.031
  O               6     1.802   5.230   0.000   0.000   7.031    -1.031
  O               7     1.801   5.230   0.000   0.000   7.031    -1.031
  O               8     1.801   5.230   0.000   0.000   7.032    -1.032
  O               9     1.801   5.230   0.000   0.000   7.031    -1.031
  O              10     1.801   5.230   0.000   0.000   7.031    -1.031
  O              11     1.801   5.230   0.000   0.000   7.031    -1.031
  O              12     1.801   5.230   0.000   0.000   7.031    -1.031
  O              13     1.825   5.188   0.000   0.000   7.013    -1.013
  O              14     1.825   5.188   0.000   0.000   7.013    -1.013
  O              15     1.825   5.188   0.000   0.000   7.013    -1.013
  O              16     1.825   5.188   0.000   0.000   7.013    -1.013
  O              17     1.825   5.188   0.000   0.000   7.013    -1.013
  O              18     1.825   5.188   0.000   0.000   7.013    -1.013
  O              19     1.825   5.188   0.000   0.000   7.013    -1.013
  O              20     1.825   5.188   0.000   0.000   7.013    -1.013
  O              21     1.825   5.188   0.000   0.000   7.013    -1.013
  O              22     1.825   5.188   0.000   0.000   7.013    -1.013
  O              23     1.825   5.188   0.000   0.000   7.013    -1.013
  O              24     1.825   5.188   0.000   0.000   7.013    -1.013
  P               1     0.855   1.780   0.000   0.000   2.635     2.365
  P               2     0.855   1.780   0.000   0.000   2.635     2.365
  P               3     0.855   1.780   0.000   0.000   2.635     2.365
  P               4     0.855   1.780   0.000   0.000   2.635     2.365
  P               5     0.855   1.780   0.000   0.000   2.635     2.365
  P               6     0.855   1.780   0.000   0.000   2.635     2.365
  Ge              1     0.515   1.292  10.000   0.000  11.808     2.192
  Ge              2     0.515   1.292  10.000   0.000  11.808     2.192
  Ge              3     0.516   1.292  10.000   0.000  11.808     2.192
  Ge              4     0.516   1.292  10.000   0.000  11.808     2.192
==========================================================================

                 Bond                   Population      Length (A)
======================================================================
              O 4  -- P 4                    0.68        1.50862
              O 5  -- P 5                    0.68        1.50862
              O 3  -- P 3                    0.68        1.50862
              O 6  -- P 6                    0.68        1.50862
              O 7  -- P 6                    0.68        1.50862
              O 12 -- P 1                    0.68        1.50862
              O 1  -- P 1                    0.68        1.50862
              O 2  -- P 2                    0.68        1.50862
              O 11 -- P 3                    0.68        1.50863
              O 10 -- P 2                    0.68        1.50863
              O 9  -- P 5                    0.68        1.50863
              O 8  -- P 4                    0.68        1.50864
              O 17 -- P 3                    0.63        1.52838
              O 13 -- P 6                    0.63        1.52838
              O 15 -- P 5                    0.63        1.52838
              O 21 -- P 3                    0.63        1.52838
              O 19 -- P 1                    0.63        1.52838
              O 20 -- P 2                    0.63        1.52838
              O 14 -- P 4                    0.63        1.52839
              O 18 -- P 1                    0.63        1.52839
              O 16 -- P 2                    0.63        1.52839
              O 23 -- P 5                    0.63        1.52839
              O 22 -- P 4                    0.63        1.52839
              O 24 -- P 6                    0.63        1.52839
              O 9  -- Ge 3                   0.38        1.84155
              O 3  -- Ge 1                   0.38        1.84156
              O 8  -- Ge 3                   0.38        1.84156
              O 6  -- Ge 2                   0.38        1.84156
              O 2  -- Ge 1                   0.38        1.84157
              O 1  -- Ge 1                   0.38        1.84157
              O 5  -- Ge 2                   0.38        1.84157
              O 7  -- Ge 3                   0.38        1.84157
              O 12 -- Ge 4                   0.38        1.84157
              O 10 -- Ge 4                   0.38        1.84158
              O 4  -- Ge 2                   0.38        1.84158
              O 11 -- Ge 4                   0.38        1.84160
              O 17 -- Ge 2                   0.33        1.86301
              O 13 -- Ge 1                   0.33        1.86302
              O 18 -- Ge 2                   0.33        1.86304
              O 19 -- Ge 3                   0.33        1.86304
              O 14 -- Ge 1                   0.33        1.86305
              O 16 -- Ge 2                   0.33        1.86305
              O 20 -- Ge 3                   0.33        1.86306
              O 21 -- Ge 3                   0.33        1.86306
              O 23 -- Ge 4                   0.33        1.86306
              O 15 -- Ge 1                   0.33        1.86307
              O 24 -- Ge 4                   0.33        1.86308
              O 22 -- Ge 4                   0.33        1.86309
              Li 1 -- O 20                   0.09        2.16778
              Li 1 -- O 21                   0.09        2.16778
              Li 2 -- O 22                   0.09        2.16778
              Li 1 -- O 15                   0.09        2.16778
              Li 2 -- O 24                   0.09        2.16778
              Li 2 -- O 23                   0.09        2.16779
              Li 2 -- O 18                   0.09        2.16779
              Li 2 -- O 16                   0.09        2.16779
              Li 1 -- O 14                   0.09        2.16779
              Li 1 -- O 19                   0.09        2.16779
              Li 1 -- O 13                   0.09        2.16780
              Li 2 -- O 17                   0.09        2.16780
              O 11 -- O 21                  -0.15        2.40427
              O 7  -- O 24                  -0.15        2.40428
              O 8  -- O 22                  -0.15        2.40429
              O 5  -- O 15                  -0.15        2.40430
              O 10 -- O 20                  -0.15        2.40431
              O 1  -- O 18                  -0.15        2.40431
              O 2  -- O 16                  -0.15        2.40431
              O 9  -- O 23                  -0.15        2.40432
              O 12 -- O 19                  -0.15        2.40432
              O 4  -- O 14                  -0.15        2.40433
              O 6  -- O 13                  -0.15        2.40435
              O 3  -- O 17                  -0.15        2.40436
              O 15 -- O 23                  -0.14        2.47635
              O 14 -- O 22                  -0.14        2.47635
              O 13 -- O 24                  -0.14        2.47636
              O 18 -- O 19                  -0.14        2.47637
              O 16 -- O 20                  -0.14        2.47637
              O 17 -- O 21                  -0.14        2.47637
              O 3  -- O 11                  -0.14        2.48846
              O 1  -- O 12                  -0.14        2.48847
              O 6  -- O 7                   -0.14        2.48847
              O 2  -- O 10                  -0.14        2.48848
              O 5  -- O 9                   -0.14        2.48849
              O 4  -- O 8                   -0.14        2.48850
              O 16 -- O 17                  -0.09        2.51377
              O 13 -- O 14                  -0.09        2.51378
              O 19 -- O 20                  -0.09        2.51378
              O 17 -- O 18                  -0.09        2.51378
              O 13 -- O 15                  -0.09        2.51379
              O 20 -- O 21                  -0.09        2.51379
              O 14 -- O 15                  -0.09        2.51379
              O 16 -- O 18                  -0.09        2.51379
              O 19 -- O 21                  -0.09        2.51379
              O 22 -- O 23                  -0.09        2.51381
              O 23 -- O 24                  -0.09        2.51382
              O 22 -- O 24                  -0.09        2.51382
              O 11 -- O 17                  -0.11        2.54963
              O 12 -- O 18                  -0.11        2.54966
              O 5  -- O 23                  -0.11        2.54966
              O 7  -- O 13                  -0.11        2.54966
              O 10 -- O 16                  -0.11        2.54966
              O 1  -- O 19                  -0.11        2.54966
              O 4  -- O 22                  -0.11        2.54967
              O 6  -- O 24                  -0.11        2.54967
              O 2  -- O 20                  -0.11        2.54967
              O 8  -- O 14                  -0.11        2.54968
              O 3  -- O 21                  -0.11        2.54968
              O 9  -- O 15                  -0.11        2.54968
              O 5  -- O 17                  -0.08        2.59655
              O 1  -- O 13                  -0.08        2.59656
              O 4  -- O 16                  -0.08        2.59656
              O 9  -- O 21                  -0.08        2.59657
              O 8  -- O 20                  -0.08        2.59657
              O 6  -- O 18                  -0.08        2.59657
              O 2  -- O 14                  -0.08        2.59657
              O 7  -- O 19                  -0.08        2.59657
              O 3  -- O 15                  -0.08        2.59658
              O 12 -- O 24                  -0.08        2.59660
              O 10 -- O 22                  -0.08        2.59660
              O 11 -- O 23                  -0.08        2.59661
              O 1  -- O 3                   -0.07        2.66207
              O 2  -- O 3                   -0.07        2.66207
              O 5  -- O 6                   -0.07        2.66207
              O 4  -- O 6                   -0.07        2.66207
              O 8  -- O 9                   -0.07        2.66207
              O 7  -- O 9                   -0.07        2.66208
              O 1  -- O 2                   -0.07        2.66208
              O 4  -- O 5                   -0.07        2.66209
              O 7  -- O 8                   -0.07        2.66209
              O 10 -- O 12                  -0.07        2.66209
              O 11 -- O 12                  -0.07        2.66211
              O 10 -- O 11                  -0.07        2.66212
              O 4  -- O 17                  -0.06        2.69661
              O 8  -- O 19                  -0.06        2.69662
              O 2  -- O 13                  -0.06        2.69662
              O 3  -- O 14                  -0.06        2.69663
              O 9  -- O 20                  -0.06        2.69664
              O 6  -- O 16                  -0.06        2.69665
              O 10 -- O 23                  -0.06        2.69665
              O 5  -- O 18                  -0.06        2.69666
              O 1  -- O 15                  -0.06        2.69667
              O 7  -- O 21                  -0.06        2.69667
              O 12 -- O 22                  -0.06        2.69668
              O 11 -- O 24                  -0.06        2.69670
              Li 2 -- Ge 2                  -0.81        2.77839
              Li 1 -- Ge 3                  -0.81        2.77841
              Li 2 -- Ge 4                  -0.81        2.77841
              Li 1 -- Ge 1                  -0.81        2.77841
              O 4  -- O 10                  -0.01        2.90751
              O 5  -- O 11                  -0.01        2.90751
              O 6  -- O 12                  -0.01        2.90751
              O 3  -- O 9                   -0.01        2.90751
              O 2  -- O 8                   -0.01        2.90751
              O 1  -- O 7                   -0.01        2.90752
======================================================================


Writing analysis data to ml_dos.castep_bin

Writing model to ml_dos.check
 
 A BibTeX formatted list of references used in this run has been written to 
 ml_dos.bib
 
Initialisation time =     20.00 s
Calculation time    =   2222.24 s
Finalisation time   =      3.31 s
Total time          =   2245.55 s
Peak Memory Use     = 2629720 kB
 
Overall parallel efficiency rating: Terrible (33%)
 
Data was distributed by:-
G-vector (3-way); efficiency rating: Good (74%)
k-point (4-way); efficiency rating: Poor (38%)
