 +-------------------------------------------------+
 |                                                 |
 |      CCC   AA    SSS  TTTTT  EEEEE  PPPP        |
 |     C     A  A  S       T    E      P   P       |
 |     C     AAAA   SS     T    EEE    PPPP        |
 |     C     A  A     S    T    E      P           |
 |      CCC  A  A  SSS     T    EEEEE  P           |
 |                                                 |
 +-------------------------------------------------+
 |                                                 |
 | Welcome to Academic Release CASTEP version 25.12|
 | Ab Initio Total Energy Program                  |
 |                                                 |
 | Authors:                                        |
 | M. Segall, M. Probert, C. Pickard, P. Hasnip,   |
 | S. Clark, K. Refson, J. R. Yates,               |
 | A. Bartok-Partay, M. Payne                      |
 |                                                 |
 | Contributors:                                   |
 | P. Lindan, P. Haynes, J. White, V. Milman,      |
 | N. Govind, M. Gibson, P. Tulip, V. Cocula,      |
 | B. Montanari, D. Quigley, M. Glover,            |
 | L. Bernasconi, A. Perlov, M. Plummer,           |
 | E. McNellis, J. Meyer, J. Gale, D. Jochym       |
 | J. Aarons, B. Walker, R. Gillen, D. Jones       |
 | T. Green, I. J. Bush, C. J. Armstrong,          |
 | E. J. Higgins, E. L. Brown, M. S. McFly,        |
 | J. Wilkins, B-C. Shih, P. J. P. Byrne,          |
 | R. J. Maurer, J. C. Womack, J. Dziedzic,        |
 | L. LeBlanc, T. K. Stenczel, J. Kermode,         |
 | S. Sturniolo, B. Shi, B. Durham, M. Evans,      |
 | M. J. Smith, A. Tamerus, Z. Hawkhead,           |
 | V. Ravindran, T. Hollins, S. A. Joyce,          |
 | R. T. Strong, A. M. Reilly, S. J. Donaldson,    |
 | J. C. A. Prentice                               |
 |                                                 |
 | Copyright (c) 2000 - 2024                       |
 |                                                 |
 |     Distributed under license from Cambridge    |
 |     Enterprise for academic use only.           |
 |                                                 |
 | Please cite                                     |
 |                                                 |
 |     "First principles methods using CASTEP"     |
 |                                                 |
 |         Zeitschrift fuer Kristallographie       |
 |           220(5-6) pp. 567-570 (2005)           |
 |                                                 |
 | S. J. Clark, M. D. Segall, C. J. Pickard,       |
 | P. J. Hasnip, M. J. Probert, K. Refson,         |
 | M. C. Payne                                     |
 |                                                 |
 |       in all publications arising from          |
 |              your use of CASTEP                 |
 |                                                 |
 +-------------------------------------------------+
 |                                                 |
 |              http://www.castep.org              |
 |                                                 |
 +-------------------------------------------------+



 Compiled for linux_x86_64_gfortran10 on Sun, 13 Jul 2025 14:49:40 -0400
 from code version git version unavailable
 Compiler: GNU Fortran 13.3.0; Optimisation: fast
 Comms   : Open MPI v5.0.3
 MATHLIBS: flexiblas (IMKL) (LAPACK version 3.12.0)
 FFT Lib : fftw3 version fftw-3.3.10-sse2-avx-avx2-avx2_128
 Fundamental constants values: CODATA 2018

 Run started: Fri, 26 Dec 2025 13:05:39 -0500
 Warning in parameters_read: presetting of magnetic moments on atoms cannot be guaranteed when metals_method /= density mixing

 Atomic calculation performed for Li: 1s2 2s1

 Converged in 47 iterations to an ae energy of -202.784 eV

   ============================================================                
   | Pseudopotential Report - Date of generation 26-12-2025   |                
   ------------------------------------------------------------                
   | Element: Li Ionic charge:  3.00 Level of theory: PBE     |                
   | Atomic Solver: Koelling-Harmon                           |                
   |                                                          |                
   |               Reference Electronic Structure             |                
   |         Orbital         Occupation         Energy        |                
   |            1s              2.000           -1.906        |                
   |            2s              1.000           -0.106        |                
   |                                                          |                
   |                 Pseudopotential Definition               |                
   |        Beta     l      e      Rc     scheme   norm       |                
   |          1      0   -1.906   1.001     qc      0         |                
   |          2      0   -0.106   1.001     qc      0         |                
   |          3      0    0.250   1.001     qc      0         |                
   |         loc     1    0.000   1.001     pn      0         |                
   |                                                          |                
   | Augmentation charge Rinner = 0.699                       |                
   | No partial core correction                               |                
   ------------------------------------------------------------                
   | "1|1.0|14|16|18|10U:20(qc=7)"                            |                
   ------------------------------------------------------------                
   |      Author: Chris J. Pickard, Cambridge University      |                
   ============================================================                

 Atomic calculation performed for O: 1s2 2s2 2p4

 Converged in 61 iterations to an ae energy of -2040.902 eV

   ============================================================                
   | Pseudopotential Report - Date of generation 26-12-2025   |                
   ------------------------------------------------------------                
   | Element: O Ionic charge:  6.00 Level of theory: PBE      |                
   | Atomic Solver: Koelling-Harmon                           |                
   |                                                          |                
   |               Reference Electronic Structure             |                
   |         Orbital         Occupation         Energy        |                
   |            2s              2.000           -0.881        |                
   |            2p              4.000           -0.332        |                
   |                                                          |                
   |                 Pseudopotential Definition               |                
   |        Beta     l      e      Rc     scheme   norm       |                
   |          1      0   -0.881   1.100     qc      0         |                
   |          2      0    0.250   1.100     qc      0         |                
   |          3      1   -0.332   1.100     qc      0         |                
   |          4      1    0.250   1.100     qc      0         |                
   |         loc     2    0.000   1.100     pn      0         |                
   |                                                          |                
   | Augmentation charge Rinner = 0.769                       |                
   | Partial core correction Rc = 0.769                       |                
   ------------------------------------------------------------                
   | "2|1.1|17|20|23|20:21(qc=8)"                             |                
   ------------------------------------------------------------                
   |      Author: Chris J. Pickard, Cambridge University      |                
   ============================================================                

 Atomic calculation performed for V: 1s2 2s2 2p6 3s2 3p6 3d3 4s2

 Converged in 81 iterations to an ae energy of -25823.733 eV

   ============================================================                
   | Pseudopotential Report - Date of generation 26-12-2025   |                
   ------------------------------------------------------------                
   | Element: V Ionic charge: 13.00 Level of theory: PBE      |                
   | Atomic Solver: Koelling-Harmon                           |                
   |                                                          |                
   |               Reference Electronic Structure             |                
   |         Orbital         Occupation         Energy        |                
   |            3s              2.000           -2.581        |                
   |            3p              6.000           -1.618        |                
   |            3d              3.000           -0.190        |                
   |            4s              2.000           -0.173        |                
   |                                                          |                
   |                 Pseudopotential Definition               |                
   |        Beta     l      e      Rc     scheme   norm       |                
   |          1      0   -2.581   1.803     qc      0         |                
   |          2      0   -0.173   1.803     qc      0         |                
   |          3      0    0.250   1.803     qc      0         |                
   |          4      1   -1.618   1.803     qc      0         |                
   |          5      1    0.250   1.803     qc      0         |                
   |          6      2   -0.190   1.803     qc      0         |                
   |          7      2    0.250   1.803     qc      0         |                
   |         loc     3    0.000   1.803     pn      0         |                
   |                                                          |                
   | Augmentation charge Rinner = 0.600                       |                
   | Partial core correction Rc = 0.600                       |                
   ------------------------------------------------------------                
   | "3|1.8|1.8|0.6|12|14|16|30U:40:31:32(qc=7)"              |                
   ------------------------------------------------------------                
   |      Author: Chris J. Pickard, Cambridge University      |                
   ============================================================                

 Atomic calculation performed for Fe: 1s2 2s2 2p6 3s2 3p6 3d6 4s2

 Converged in 96 iterations to an ae energy of -34625.102 eV

   ============================================================                
   | Pseudopotential Report - Date of generation 26-12-2025   |                
   ------------------------------------------------------------                
   | Element: Fe Ionic charge:  8.00 Level of theory: PBE     |                
   | Atomic Solver: Koelling-Harmon                           |                
   |                                                          |                
   |               Reference Electronic Structure             |                
   |         Orbital         Occupation         Energy        |                
   |            3d              6.000           -0.276        |                
   |            4s              2.000           -0.194        |                
   |                                                          |                
   |                 Pseudopotential Definition               |                
   |        Beta     l      e      Rc     scheme   norm       |                
   |          1      0   -0.194   2.399     qc      0         |                
   |          2      0    0.250   2.399     qc      0         |                
   |          3      1    0.000   2.399     qc      0         |                
   |          4      1    0.250   2.399     qc      0         |                
   |          5      2   -0.276   1.997     qc      0         |                
   |          6      2    0.250   1.997     qc      0         |                
   |         loc     3    0.000   2.399     pn      0         |                
   |                                                          |                
   | Augmentation charge Rinner = 1.000                       |                
   | Partial core correction Rc = 1.000                       |                
   ------------------------------------------------------------                
   | "3|2.4|2.4|1.0|8|9|10|40:41:32U2U2(qc=5.5)"              |                
   ------------------------------------------------------------                
   |      Author: Chris J. Pickard, Cambridge University      |                
   ============================================================                

 Pseudo atomic calculation performed for Li 1s2 2s1

 Converged in 18 iterations to a total energy of -200.5098 eV

 Pseudo atomic calculation performed for O 2s2 2p4

 Converged in 24 iterations to a total energy of -432.3399 eV

 Pseudo atomic calculation performed for V 3s2 3p6 3d3 4s2

 Converged in 36 iterations to a total energy of -2065.8041 eV

 Pseudo atomic calculation performed for Fe 3d6 4s2

 Converged in 34 iterations to a total energy of -853.8318 eV
 Calculation parallelised over 40 processes.
 Data is distributed by G-vector(40-way)

 ************************************ Title ************************************
 

 ***************************** General Parameters ******************************
  
 output verbosity                               : normal  (1)
 write checkpoint data to                       : castep_dos.check
 type of calculation                            : Electronic Spectroscopy
 stress calculation                             : off
 density difference calculation                 : off
 electron localisation func (ELF) calculation   : off
 Hirshfeld analysis                             : off
 polarisation (Berry phase) analysis            : off
 molecular orbital projected DOS                : off
 deltaSCF calculation                           : off
 unlimited duration calculation
 timing information                             : on
 memory usage estimate                          : on
 write extra output files                       : on
 write final potential to formatted file        : off
 write final density to formatted file          : off
 write BibTeX reference list                    : on
 write OTFG pseudopotential files               : on
 write electrostatic potential file             : on
 write bands file                               : on
 checkpoint writing                             : both castep_bin and check files
  
 output         length unit                     : A
 output           mass unit                     : amu
 output           time unit                     : ps
 output         charge unit                     : e
 output           spin unit                     : hbar/2
 output         energy unit                     : eV
 output          force unit                     : eV/A
 output       velocity unit                     : A/ps
 output       pressure unit                     : GPa
 output     inv_length unit                     : 1/A
 output      frequency unit                     : cm-1
 output force constant unit                     : eV/A**2
 output         volume unit                     : A**3
 output   IR intensity unit                     : (D/A)**2/amu
 output         dipole unit                     : D
 output         efield unit                     : eV/A/e
 output        entropy unit                     : J/mol/K
 output    efield chi2 unit                     : pm/V
  
 wavefunctions paging                           : none
 random number generator seed                   :  130538988
 data distribution                              : optimal for this architecture
 optimization strategy                          : balance speed and memory

 *********************** Exchange-Correlation Parameters ***********************
  
 using functional                               : Perdew Burke Ernzerhof
 relativistic treatment                         : Koelling-Harmon
 DFT+D: Semi-empirical dispersion correction    : off

 ************************* Pseudopotential Parameters **************************
  
 pseudopotential representation                 : reciprocal space
 <beta|phi> representation                      : reciprocal space
 spin-orbit coupling                            : off

 **************************** Basis Set Parameters *****************************
  
 plane wave basis set cut-off                   :   900.0000   eV
 size of standard grid                          :     2.0000
 size of   fine   gmax                          :    30.7390   1/A
 finite basis set correction                    : none

 **************************** Electronic Parameters ****************************
  
 number of  electrons                           :  474.0    
 net charge of system                           :  0.000    
 net spin   of system                           :  30.00    
 number of  up  spins                           :  252.0    
 number of down spins                           :  222.0    
 treating system as spin-polarized
 number of bands                                :        302
 electron temperature                           :     0.0000   K

 ********************* Electronic Minimization Parameters **********************
  
 Method: Treating system as metallic with ensemble DFT treatment of electrons,
         and number of  SD  steps               :          1
         and number of  CG  steps               :          4
  
 total energy / atom convergence tol.           : 0.1000E-05   eV
 max force / atom convergence tol.              : ignored
 convergence tolerance window                   :          3   cycles
 max. number of SCF cycles                      :        100
 number of fixed-spin iterations                :         10
 smearing scheme                                : Gaussian
 smearing width                                 : 0.2000       eV
 Fermi energy convergence tolerance             : 0.2721E-13   eV
 number of occupancy cycles                     :          6
 periodic dipole correction                     : NONE

 *********************** Population Analysis Parameters ************************
  
 Population analysis with cutoff                :  3.000       A
 Population analysis output                     : summary and pdos components
 Partial DOS weights calculated

 ********************* Electronic Spectroscopy Parameters **********************
  
 electronic spectroscopy with theory level      : DFT       
 spectroscopy calculation                       : density of states
 max. number of iterations                      :         60
 max. steps per iteration                       :          5
 number of bands / k-point                      :        389
 band convergence tolerance                     : 0.1000E-05   eV
 write orbitals file                            : off

 *******************************************************************************
  

                           -------------------------------
                                      Unit Cell
                           -------------------------------
        Real Lattice(A)                      Reciprocal Lattice(1/A)
     6.8607580    -4.1717075     0.0067011        0.457856004  -0.753071327   0.052639640
     6.8607563     4.1717046     0.0066994        0.457856322   0.753071542   0.052639942
    -1.6572805    -0.0000025    14.4148765       -0.000425637   0.000000086   0.435833071

                       Lattice parameters(A)       Cell Angles
                    a =      8.029520          alpha =   95.552837
                    b =      8.029517          beta  =   95.552814
                    c =     14.509833          gamma =   62.603638

                       Current cell volume =           825.230800       A**3
                                   density =             2.011545   AMU/A**3
                                           =             3.340249     g/cm^3

                           -------------------------------
                                     Cell Contents
                           -------------------------------
                         Total number of ions in cell =   66
                      Total number of species in cell =    4
                        Max number of any one species =   42

            xxxxxxxxxxxxxxxxxxxxxxxxxxxxxxxxxxxxxxxxxxxxxxxxxxxxxxxxxxxx
            x  Element    Atom        Fractional coordinates of atoms  x
            x            Number           u          v          w      x
            x----------------------------------------------------------x
            x  Li           1         0.970501   0.298937   0.720222   x 
            x  Li           2         0.298937   0.970501   0.220222   x 
            x  Li           3         0.027934   0.652400   0.033722   x 
            x  Li           4         0.652400   0.027934   0.533722   x 
            x  Li           5         0.342712   0.706883   0.372850   x 
            x  Li           6         0.706883   0.342712   0.872850   x 
            x  O            1         0.157675   0.804061   0.485788   x 
            x  O            2         0.804061   0.157675   0.985788   x 
            x  O            3         0.173037   0.477818   0.145740   x 
            x  O            4         0.477818   0.173037   0.645740   x 
            x  O            5         0.242812   0.229368   0.287169   x 
            x  O            6         0.229368   0.242812   0.787168   x 
            x  O            7         0.906157   0.880568   0.121565   x 
            x  O            8         0.880568   0.906157   0.621565   x 
            x  O            9         0.783050   0.070428   0.291207   x 
            x  O           10         0.070428   0.783050   0.791207   x 
            x  O           11         0.146510   0.450924   0.448277   x 
            x  O           12         0.450924   0.146510   0.948277   x 
            x  O           13         0.632674   0.418492   0.623806   x 
            x  O           14         0.418493   0.632674   0.123806   x 
            x  O           15         0.831711   0.420589   0.308300   x 
            x  O           16         0.420589   0.831711   0.808300   x 
            x  O           17         0.621295   0.561366   0.445145   x 
            x  O           18         0.561366   0.621295   0.945145   x 
            x  O           19         0.536588   0.806916   0.307245   x 
            x  O           20         0.806917   0.536588   0.807245   x 
            x  O           21         0.524674   0.801008   0.609324   x 
            x  O           22         0.801008   0.524674   0.109324   x 
            x  O           23         0.286136   0.060285   0.455763   x 
            x  O           24         0.060285   0.286136   0.955763   x 
            x  O           25         0.916634   0.673028   0.278453   x 
            x  O           26         0.673028   0.916634   0.778453   x 
            x  O           27         0.158802   0.847562   0.272994   x 
            x  O           28         0.847562   0.158802   0.772994   x 
            x  O           29         0.452048   0.457567   0.292374   x 
            x  O           30         0.457567   0.452048   0.792374   x 
            x  O           31         0.899528   0.181907   0.474089   x 
            x  O           32         0.181907   0.899528   0.974089   x 
            x  O           33         0.555557   0.244127   0.129867   x 
            x  O           34         0.244127   0.555557   0.629867   x 
            x  O           35         0.791366   0.782543   0.453776   x 
            x  O           36         0.782543   0.791366   0.953777   x 
            x  O           37         0.151393   0.078275   0.631750   x 
            x  O           38         0.078275   0.151393   0.131750   x 
            x  O           39         0.527744   0.217112   0.432670   x 
            x  O           40         0.217112   0.527744   0.932670   x 
            x  O           41         0.895007   0.536250   0.595870   x 
            x  O           42         0.536250   0.895006   0.095870   x 
            x  V            1         0.397987   0.447167   0.175348   x 
            x  V            2         0.447167   0.397987   0.675348   x 
            x  V            3         0.740949   0.668772   0.354938   x 
            x  V            4         0.668773   0.740948   0.854938   x 
            x  V            5         0.116606   0.031836   0.514519   x 
            x  V            6         0.031836   0.116606   0.014519   x 
            x  V            7         0.669653   0.583746   0.568488   x 
            x  V            8         0.583745   0.669653   0.068488   x 
            x  V            9         0.303653   0.244683   0.403394   x 
            x  V           10         0.244683   0.303653   0.903394   x 
            x  V           11         0.944367   0.870931   0.241305   x 
            x  V           12         0.870931   0.944368   0.741305   x 
            x  Fe           1         0.696088   0.300152   0.371128   x 
            x  Fe           2         0.300152   0.696088   0.871128   x 
            x  Fe           3         0.025611   0.673469   0.540433   x 
            x  Fe           4         0.673469   0.025611   0.040433   x 
            x  Fe           5         0.396604   0.008569   0.709282   x 
            x  Fe           6         0.008569   0.396604   0.209282   x 
            xxxxxxxxxxxxxxxxxxxxxxxxxxxxxxxxxxxxxxxxxxxxxxxxxxxxxxxxxxxx


                         No user defined ionic velocities

                           -------------------------------
                                   Details of Species
                           -------------------------------

                               Mass of species in AMU
                                    Li    6.9410000
                                    O   15.9994000
                                    V   50.9415000
                                    Fe   55.8450000

                          Electric Quadrupole Moment (Barn)
                                    Li   -0.0401000 Isotope   7
                                    O   -0.0255800 Isotope  17
                                    V   -0.0520000 Isotope  51
                                    Fe    0.1600000 Isotope  57
         xxxxxxxxxxxxxxxxxxxxxxxxxxxxxxxxxxxxxxxxxxxxxxxxxxxxxxxxxxxxxxxxxxxxxx
         |  Element    Atom         Initial            Initial magnetic       |
         |            Number    spin polarization        moment (uB)     Fix? |
         |--------------------------------------------------------------------|
         | Li             1         0.000000              0.000       F       |
         | Li             2         0.000000              0.000       F       |
         | Li             3         0.000000              0.000       F       |
         | Li             4         0.000000              0.000       F       |
         | Li             5         0.000000              0.000       F       |
         | Li             6         0.000000              0.000       F       |
         | O              1         0.000000              0.000       F       |
         | O              2         0.000000              0.000       F       |
         | O              3         0.000000              0.000       F       |
         | O              4         0.000000              0.000       F       |
         | O              5         0.000000              0.000       F       |
         | O              6         0.000000              0.000       F       |
         | O              7         0.000000              0.000       F       |
         | O              8         0.000000              0.000       F       |
         | O              9         0.000000              0.000       F       |
         | O             10         0.000000              0.000       F       |
         | O             11         0.000000              0.000       F       |
         | O             12         0.000000              0.000       F       |
         | O             13         0.000000              0.000       F       |
         | O             14         0.000000              0.000       F       |
         | O             15         0.000000              0.000       F       |
         | O             16         0.000000              0.000       F       |
         | O             17         0.000000              0.000       F       |
         | O             18         0.000000              0.000       F       |
         | O             19         0.000000              0.000       F       |
         | O             20         0.000000              0.000       F       |
         | O             21         0.000000              0.000       F       |
         | O             22         0.000000              0.000       F       |
         | O             23         0.000000              0.000       F       |
         | O             24         0.000000              0.000       F       |
         | O             25         0.000000              0.000       F       |
         | O             26         0.000000              0.000       F       |
         | O             27         0.000000              0.000       F       |
         | O             28         0.000000              0.000       F       |
         | O             29         0.000000              0.000       F       |
         | O             30         0.000000              0.000       F       |
         | O             31         0.000000              0.000       F       |
         | O             32         0.000000              0.000       F       |
         | O             33         0.000000              0.000       F       |
         | O             34         0.000000              0.000       F       |
         | O             35         0.000000              0.000       F       |
         | O             36         0.000000              0.000       F       |
         | O             37         0.000000              0.000       F       |
         | O             38         0.000000              0.000       F       |
         | O             39         0.000000              0.000       F       |
         | O             40         0.000000              0.000       F       |
         | O             41         0.000000              0.000       F       |
         | O             42         0.000000              0.000       F       |
         | V              1         0.000000              0.000       F       |
         | V              2         0.000000              0.000       F       |
         | V              3         0.000000              0.000       F       |
         | V              4         0.000000              0.000       F       |
         | V              5         0.000000              0.000       F       |
         | V              6         0.000000              0.000       F       |
         | V              7         0.000000              0.000       F       |
         | V              8         0.000000              0.000       F       |
         | V              9         0.000000              0.000       F       |
         | V             10         0.000000              0.000       F       |
         | V             11         0.000000              0.000       F       |
         | V             12         0.000000              0.000       F       |
         | Fe             1         0.625000              5.000       F       |
         | Fe             2         0.625000              5.000       F       |
         | Fe             3         0.625000              5.000       F       |
         | Fe             4         0.625000              5.000       F       |
         | Fe             5         0.625000              5.000       F       |
         | Fe             6         0.625000              5.000       F       |
         xxxxxxxxxxxxxxxxxxxxxxxxxxxxxxxxxxxxxxxxxxxxxxxxxxxxxxxxxxxxxxxxxxxxxx



         Quantisation axis:    0.00000   0.00000   1.00000

         Units for Hubbard U values are eV
         xxxxxxxxxxxxxxxxxxxxxxxxxxxxxxxxxxxxxxxxxxxxxxxxxxxxxxxxxxxxxxxxxxxx
         |  Element     Atom     Hubbard U   values by orbital type         |
         |             Number      s          p          d          f       |
         |------------------------------------------------------------------|
         |Li            1         0.00000    0.00000    0.00000    0.00000  |
         |Li            2         0.00000    0.00000    0.00000    0.00000  |
         |Li            3         0.00000    0.00000    0.00000    0.00000  |
         |Li            4         0.00000    0.00000    0.00000    0.00000  |
         |Li            5         0.00000    0.00000    0.00000    0.00000  |
         |Li            6         0.00000    0.00000    0.00000    0.00000  |
         |O             1         0.00000    0.00000    0.00000    0.00000  |
         |O             2         0.00000    0.00000    0.00000    0.00000  |
         |O             3         0.00000    0.00000    0.00000    0.00000  |
         |O             4         0.00000    0.00000    0.00000    0.00000  |
         |O             5         0.00000    0.00000    0.00000    0.00000  |
         |O             6         0.00000    0.00000    0.00000    0.00000  |
         |O             7         0.00000    0.00000    0.00000    0.00000  |
         |O             8         0.00000    0.00000    0.00000    0.00000  |
         |O             9         0.00000    0.00000    0.00000    0.00000  |
         |O            10         0.00000    0.00000    0.00000    0.00000  |
         |O            11         0.00000    0.00000    0.00000    0.00000  |
         |O            12         0.00000    0.00000    0.00000    0.00000  |
         |O            13         0.00000    0.00000    0.00000    0.00000  |
         |O            14         0.00000    0.00000    0.00000    0.00000  |
         |O            15         0.00000    0.00000    0.00000    0.00000  |
         |O            16         0.00000    0.00000    0.00000    0.00000  |
         |O            17         0.00000    0.00000    0.00000    0.00000  |
         |O            18         0.00000    0.00000    0.00000    0.00000  |
         |O            19         0.00000    0.00000    0.00000    0.00000  |
         |O            20         0.00000    0.00000    0.00000    0.00000  |
         |O            21         0.00000    0.00000    0.00000    0.00000  |
         |O            22         0.00000    0.00000    0.00000    0.00000  |
         |O            23         0.00000    0.00000    0.00000    0.00000  |
         |O            24         0.00000    0.00000    0.00000    0.00000  |
         |O            25         0.00000    0.00000    0.00000    0.00000  |
         |O            26         0.00000    0.00000    0.00000    0.00000  |
         |O            27         0.00000    0.00000    0.00000    0.00000  |
         |O            28         0.00000    0.00000    0.00000    0.00000  |
         |O            29         0.00000    0.00000    0.00000    0.00000  |
         |O            30         0.00000    0.00000    0.00000    0.00000  |
         |O            31         0.00000    0.00000    0.00000    0.00000  |
         |O            32         0.00000    0.00000    0.00000    0.00000  |
         |O            33         0.00000    0.00000    0.00000    0.00000  |
         |O            34         0.00000    0.00000    0.00000    0.00000  |
         |O            35         0.00000    0.00000    0.00000    0.00000  |
         |O            36         0.00000    0.00000    0.00000    0.00000  |
         |O            37         0.00000    0.00000    0.00000    0.00000  |
         |O            38         0.00000    0.00000    0.00000    0.00000  |
         |O            39         0.00000    0.00000    0.00000    0.00000  |
         |O            40         0.00000    0.00000    0.00000    0.00000  |
         |O            41         0.00000    0.00000    0.00000    0.00000  |
         |O            42         0.00000    0.00000    0.00000    0.00000  |
         |V             1         0.00000    0.00000    3.25000    0.00000  |
         |V             2         0.00000    0.00000    3.25000    0.00000  |
         |V             3         0.00000    0.00000    3.25000    0.00000  |
         |V             4         0.00000    0.00000    3.25000    0.00000  |
         |V             5         0.00000    0.00000    3.25000    0.00000  |
         |V             6         0.00000    0.00000    3.25000    0.00000  |
         |V             7         0.00000    0.00000    3.25000    0.00000  |
         |V             8         0.00000    0.00000    3.25000    0.00000  |
         |V             9         0.00000    0.00000    3.25000    0.00000  |
         |V            10         0.00000    0.00000    3.25000    0.00000  |
         |V            11         0.00000    0.00000    3.25000    0.00000  |
         |V            12         0.00000    0.00000    3.25000    0.00000  |
         |Fe            1         0.00000    0.00000    5.30000    0.00000  |
         |Fe            2         0.00000    0.00000    5.30000    0.00000  |
         |Fe            3         0.00000    0.00000    5.30000    0.00000  |
         |Fe            4         0.00000    0.00000    5.30000    0.00000  |
         |Fe            5         0.00000    0.00000    5.30000    0.00000  |
         |Fe            6         0.00000    0.00000    5.30000    0.00000  |
         xxxxxxxxxxxxxxxxxxxxxxxxxxxxxxxxxxxxxxxxxxxxxxxxxxxxxxxxxxxxxxxxxxxx


                          Files used for pseudopotentials:
                                    Li 1|1.0|14|16|18|10U:20(qc=7)
                                    O 2|1.1|17|20|23|20:21(qc=8)
                                    V 3|1.8|1.8|0.6|12|14|16|30U:40:31:32(qc=7)
                                    Fe 3|2.4|2.4|1.0|8|9|10|40:41:32U2U2(qc=5.5)

                           -------------------------------
                              k-Points For BZ Sampling
                           -------------------------------
                       MP grid size for SCF calculation is  3  3  2
                            with an offset of   0.000  0.000  0.000
                       Number of kpoints used =             9

                           -------------------------------
                               Symmetry and Constraints
                           -------------------------------

                      Maximum deviation from symmetry =  0.00000         ANG

                      Number of symmetry operations   =           1
                      Number of ionic constraints     =           3
                      Point group of crystal =     1: C1, 1, 1
                      Space group of crystal =     9: Cc, C -2yc

             Set iprint > 1 for details on symmetry rotations/translations

                         Centre of mass is constrained
             Set iprint > 2 for details of linear ionic constraints

                         Number of cell constraints= 0
                         Cell constraints are:  1 2 3 4 5 6

                         External pressure/stress (GPa)
                          0.00000   0.00000   0.00000
                                    0.00000   0.00000
                                              0.00000
 
+---------------- MEMORY AND SCRATCH DISK ESTIMATES PER PROCESS --------------+
|                                                     Memory          Disk    |
| Baseline code, static data and system overhead      813.0 MB         0.0 MB |
| BLAS internal memory storage                          0.0 MB         0.0 MB |
| Model and support data                              556.9 MB         0.0 MB |
| Electronic energy minimisation requirements         676.1 MB         0.0 MB |
| Force calculation requirements                        6.4 MB         0.0 MB |
|                                               ----------------------------- |
| Approx. total storage required per process         2046.1 MB         0.0 MB |
|                                                                             |
| Requirements will fluctuate during execution and may exceed these estimates |
+-----------------------------------------------------------------------------+
Calculating approximate eigenstates for fixed initial Hamiltonian
Cut-off for approx. calculation is  605.395 eV
Resetting cut-off to  900.000 eV
Improving states further at cut-off of  900.000 eV
Calculating total energy with cut-off of  900.000 eV.

 Pseudo atomic calculation performed for Li 1s2 2s1

 Converged in 18 iterations to a total energy of -200.5098 eV

 Pseudo atomic calculation performed for O 2s2 2p4

 Converged in 24 iterations to a total energy of -432.3399 eV

 Pseudo atomic calculation performed for V 3s2 3p6 3d3 4s2

 Converged in 36 iterations to a total energy of -2065.8041 eV

 Pseudo atomic calculation performed for Fe 3d6 4s2

 Converged in 34 iterations to a total energy of -853.8318 eV
------------------------------------------------------------------------ <-- SCF
SCF loop      Energy           Fermi           Energy gain       Timer   <-- SCF
                               energy          per atom          (sec)   <-- SCF
------------------------------------------------------------------------ <-- SCF
Initial  -4.73700416E+004  4.78269521E+000                       216.43  <-- SCF
      1  -4.97421910E+004  3.14668053E+000   3.59416580E+001     778.78  <-- SCF
      2  -4.97807327E+004  2.66816282E+000   5.83964211E-001    1152.72  <-- SCF
      3  -4.97825196E+004  2.54525738E+000   2.70751223E-002    1571.86  <-- SCF
      4  -4.97826020E+004  2.54525738E+000   1.24826035E-003    1939.45  <-- SCF
      5  -4.97826020E+004  2.54525738E+000   0.00000000E+000    2345.74  <-- SCF
      6  -4.97826020E+004  2.54525738E+000   0.00000000E+000    2747.93  <-- SCF
      7  -4.97311998E+004  2.51590474E+000  -7.78821721E-001    3244.30  <-- SCF
      8  -4.97313182E+004  2.52936185E+000   1.79402964E-003    3586.89  <-- SCF
      9  -4.97313254E+004  2.52674362E+000   1.08453919E-004    3900.77  <-- SCF
     10  -4.97313262E+004  2.52768682E+000   1.24448963E-005    4215.93  <-- SCF
     11  -4.97313263E+004  2.52743918E+000   1.21949262E-006    4521.34  <-- SCF
     12  -4.97313263E+004  2.52756490E+000   1.92159751E-007    4838.54  <-- SCF
     13  -4.97313263E+004  2.52752710E+000   2.35938639E-008    5138.48  <-- SCF
------------------------------------------------------------------------ <-- SCF
 
Integrated Spin Density     =     30.0000     hbar/2
Integrated |Spin Density|   =     30.0666     hbar/2
 

     Hubbard U occupation numbers
     ----------------------------
Species   Ion   l  spin               occupancies
==================================================================
  V        1    2   up:   0.43  0.44  0.47  0.52  0.53
                    dn:   0.40  0.43  0.46  0.50  0.50
  V        2    2   up:   0.43  0.44  0.47  0.52  0.53
                    dn:   0.40  0.43  0.46  0.50  0.50
  V        3    2   up:   0.34  0.42  0.50  0.52  0.54
                    dn:   0.31  0.42  0.49  0.52  0.53
  V        4    2   up:   0.34  0.42  0.50  0.52  0.54
                    dn:   0.31  0.42  0.49  0.52  0.53
  V        5    2   up:   0.42  0.44  0.48  0.52  0.52
                    dn:   0.38  0.42  0.47  0.49  0.51
  V        6    2   up:   0.42  0.44  0.48  0.52  0.52
                    dn:   0.38  0.42  0.47  0.49  0.51
  V        7    2   up:   0.42  0.44  0.48  0.52  0.53
                    dn:   0.40  0.40  0.46  0.50  0.51
  V        8    2   up:   0.42  0.44  0.48  0.52  0.53
                    dn:   0.40  0.40  0.46  0.50  0.51
  V        9    2   up:   0.43  0.44  0.48  0.51  0.53
                    dn:   0.40  0.43  0.46  0.49  0.51
  V       10    2   up:   0.43  0.44  0.48  0.51  0.53
                    dn:   0.40  0.43  0.46  0.49  0.51
  V       11    2   up:   0.43  0.43  0.47  0.52  0.53
                    dn:   0.41  0.42  0.46  0.50  0.51
  V       12    2   up:   0.43  0.43  0.47  0.52  0.53
                    dn:   0.41  0.42  0.46  0.50  0.51
  Fe       1    2   up:   0.99  0.99  1.00  1.00  1.00
                    dn:   0.10  0.10  0.11  0.38  0.39
  Fe       2    2   up:   0.99  0.99  1.00  1.00  1.00
                    dn:   0.10  0.10  0.11  0.38  0.39
  Fe       3    2   up:   0.99  0.99  1.00  1.00  1.00
                    dn:   0.10  0.10  0.11  0.38  0.41
  Fe       4    2   up:   0.99  0.99  1.00  1.00  1.00
                    dn:   0.10  0.10  0.11  0.38  0.41
  Fe       5    2   up:   0.99  0.99  1.00  1.00  1.00
                    dn:   0.09  0.10  0.12  0.37  0.39
  Fe       6    2   up:   0.99  0.99  1.00  1.00  1.00
                    dn:   0.09  0.10  0.12  0.37  0.39
==================================================================

Final energy, E             =  -49731.32626950     eV
Final free energy (E-TS)    =  -49731.32626950     eV
(energies not corrected for finite basis set)
 
NB est. 0K energy (E-0.5TS)      =  -49731.32626950     eV
 

Writing analysis data to castep_dos.castep_bin

Writing model to castep_dos.check
 
+---------------- MEMORY AND SCRATCH DISK ESTIMATES PER PROCESS --------------+
|                                                     Memory          Disk    |
|                                               ----------------------------- |
| Approx. total storage required per process         1605.1 MB         0.0 MB |
|                                                                             |
| Requirements will fluctuate during execution and may exceed these estimates |
+-----------------------------------------------------------------------------+
 
  =====================================================================
  +                                                                   +
  +                 Calculation of Spectral Properties                +
  +                                                                   +
  + Calculation re-parallelised over 36 processes.                    +
  + There are 9 k-points distributed across 9 k-point groups.         +
  + Data distributed by G-vector(4-way), k-point(9-way), band(1-way)  +
  + Data distributed by G-vector(4-way), k-point(9-way)               +
  +                                                                   +
  =====================================================================

 Pseudo atomic calculation performed for Li 1s2 2s1

 Converged in 18 iterations to a total energy of -200.5098 eV

 Pseudo atomic calculation performed for O 2s2 2p4

 Converged in 24 iterations to a total energy of -432.3399 eV

 Pseudo atomic calculation performed for V 3s2 3p6 3d3 4s2

 Converged in 36 iterations to a total energy of -2065.8041 eV

 Pseudo atomic calculation performed for Fe 3d6 4s2

 Converged in 34 iterations to a total energy of -853.8318 eV

 Pseudo atomic calculation performed for Li 1s2 2s1

 Converged in 18 iterations to a total energy of -200.5098 eV

 Pseudo atomic calculation performed for O 2s2 2p4

 Converged in 24 iterations to a total energy of -432.3399 eV

 Pseudo atomic calculation performed for V 3s2 3p6 3d3 4s2

 Converged in 36 iterations to a total energy of -2065.8041 eV

 Pseudo atomic calculation performed for Fe 3d6 4s2

 Converged in 34 iterations to a total energy of -853.8318 eV
  Starting k-point:        1 of        1 Time:      0.00 sec  |<-- SPEC

 Pseudo atomic calculation performed for Li 1s2 2s1

 Converged in 18 iterations to a total energy of -200.5098 eV

 Pseudo atomic calculation performed for O 2s2 2p4

 Converged in 24 iterations to a total energy of -432.3399 eV

 Pseudo atomic calculation performed for V 3s2 3p6 3d3 4s2

 Converged in 36 iterations to a total energy of -2065.8041 eV

 Pseudo atomic calculation performed for Fe 3d6 4s2

 Converged in 34 iterations to a total energy of -853.8318 eV
  Starting k-point:        1 of        1 Time:    339.52 sec  |<-- SPEC

 Pseudo atomic calculation performed for Li 1s2 2s1

 Converged in 18 iterations to a total energy of -200.5098 eV

 Pseudo atomic calculation performed for O 2s2 2p4

 Converged in 24 iterations to a total energy of -432.3399 eV

 Pseudo atomic calculation performed for V 3s2 3p6 3d3 4s2

 Converged in 36 iterations to a total energy of -2065.8041 eV

 Pseudo atomic calculation performed for Fe 3d6 4s2

 Converged in 34 iterations to a total energy of -853.8318 eV
  Check-pointing spectral run                                 |<-- SPEC
  Total time to compute matrix elements            683.40 sec |<-- SPEC
  
  + Calculation re-parallelised over 40 processes.                    +
  + Data distributed by G-vector(40-way)                              +

 Pseudo atomic calculation performed for Li 1s2 2s1

 Converged in 18 iterations to a total energy of -200.5098 eV

 Pseudo atomic calculation performed for O 2s2 2p4

 Converged in 24 iterations to a total energy of -432.3399 eV

 Pseudo atomic calculation performed for V 3s2 3p6 3d3 4s2

 Converged in 36 iterations to a total energy of -2065.8041 eV

 Pseudo atomic calculation performed for Fe 3d6 4s2

 Converged in 34 iterations to a total energy of -853.8318 eV

 ************************** Forces **************************
 *                                                          *
 *               Cartesian components (eV/A)                *
 * -------------------------------------------------------- *
 *                         x            y            z      *
 *                                                          *
 * Li              1      0.00709     -0.00191     -0.00561 *
 * Li              2      0.00708      0.00191     -0.00559 *
 * Li              3      0.01262     -0.01381      0.00134 *
 * Li              4      0.01262      0.01381      0.00133 *
 * Li              5     -0.00286     -0.00719      0.00551 *
 * Li              6     -0.00287      0.00719      0.00553 *
 * O               1      0.00081     -0.00945      0.00108 *
 * O               2      0.00082      0.00942      0.00109 *
 * O               3     -0.00275     -0.02311      0.00874 *
 * O               4     -0.00287      0.02300      0.00871 *
 * O               5     -0.00079      0.00408     -0.00231 *
 * O               6     -0.00078     -0.00408     -0.00234 *
 * O               7     -0.00352      0.01507     -0.01151 *
 * O               8     -0.00351     -0.01504     -0.01144 *
 * O               9      0.00681      0.00253      0.00921 *
 * O              10      0.00681     -0.00244      0.00919 *
 * O              11      0.01686      0.01289     -0.00702 *
 * O              12      0.01685     -0.01279     -0.00710 *
 * O              13     -0.00136      0.01726     -0.00348 *
 * O              14     -0.00145     -0.01728     -0.00345 *
 * O              15      0.02257      0.01284     -0.00373 *
 * O              16      0.02258     -0.01295     -0.00368 *
 * O              17      0.01171      0.00549     -0.00114 *
 * O              18      0.01172     -0.00548     -0.00135 *
 * O              19     -0.00087     -0.00847      0.00291 *
 * O              20     -0.00088      0.00839      0.00287 *
 * O              21      0.01207      0.00678      0.00251 *
 * O              22      0.01207     -0.00676      0.00250 *
 * O              23     -0.00523     -0.00727      0.00546 *
 * O              24     -0.00521      0.00724      0.00545 *
 * O              25     -0.03486     -0.00086      0.00141 *
 * O              26     -0.03489      0.00082      0.00145 *
 * O              27      0.00446     -0.00483      0.00944 *
 * O              28      0.00452      0.00487      0.00945 *
 * O              29     -0.00712     -0.00283     -0.00489 *
 * O              30     -0.00708      0.00286     -0.00470 *
 * O              31     -0.00376     -0.00012     -0.00041 *
 * O              32     -0.00379     -0.00000     -0.00047 *
 * O              33      0.00101      0.00858      0.01809 *
 * O              34      0.00101     -0.00860      0.01810 *
 * O              35     -0.00740     -0.00327     -0.01615 *
 * O              36     -0.00751      0.00325     -0.01632 *
 * O              37      0.00251     -0.00014      0.02643 *
 * O              38      0.00250      0.00012      0.02638 *
 * O              39     -0.00249      0.00193      0.00090 *
 * O              40     -0.00243     -0.00189      0.00089 *
 * O              41     -0.00367      0.00143      0.00496 *
 * O              42     -0.00357     -0.00134      0.00498 *
 * V               1     -0.00031     -0.00489     -0.01277 *
 * V               2     -0.00023      0.00507     -0.01294 *
 * V               3     -0.00194      0.00226      0.00252 *
 * V               4     -0.00185     -0.00198      0.00268 *
 * V               5     -0.01402      0.00675     -0.00853 *
 * V               6     -0.01403     -0.00657     -0.00847 *
 * V               7     -0.01069      0.00975      0.00534 *
 * V               8     -0.01071     -0.00990      0.00547 *
 * V               9      0.00944      0.02740     -0.00406 *
 * V              10      0.00938     -0.02756     -0.00394 *
 * V              11     -0.01377     -0.01674     -0.00093 *
 * V              12     -0.01386      0.01653     -0.00099 *
 * Fe              1      0.00803      0.00750      0.00406 *
 * Fe              2      0.00803     -0.00749      0.00403 *
 * Fe              3     -0.01034      0.00583     -0.00717 *
 * Fe              4     -0.01033     -0.00584     -0.00717 *
 * Fe              5      0.01181     -0.00542     -0.02017 *
 * Fe              6      0.01181      0.00543     -0.02017 *
 *                                                          *
 ************************************************************

 Pseudo atomic calculation performed for Li 1s2 2s1

 Converged in 18 iterations to a total energy of -200.5098 eV

 Pseudo atomic calculation performed for O 2s2 2p4

 Converged in 24 iterations to a total energy of -432.3399 eV

 Pseudo atomic calculation performed for V 3s2 3p6 3d3 4s2

 Converged in 36 iterations to a total energy of -2065.8041 eV

 Pseudo atomic calculation performed for Fe 3d6 4s2

 Converged in 34 iterations to a total energy of -853.8318 eV
Charge spilling parameter for spin component 1 = 0.18%
Charge spilling parameter for spin component 2 = 0.15%

                   Orbital Populations                  
  ---------------------------------------------------------------
     Ion    Atom   Orbital              Up        Down      Spin
  ---------------------------------------------------------------
     Li     1      S                    1.000     1.000     0.000
     Li     1      S                    0.012     0.014    -0.003
     Li     1      Px                   0.035     0.036    -0.001
     Li     1      Py                   0.035     0.040    -0.004
     Li     1      Pz                   0.029     0.030    -0.001
     Li     2      S                    1.000     1.000     0.000
     Li     2      S                    0.012     0.014    -0.003
     Li     2      Px                   0.035     0.036    -0.001
     Li     2      Py                   0.035     0.040    -0.004
     Li     2      Pz                   0.029     0.030    -0.001
     Li     3      S                    1.000     1.000     0.000
     Li     3      S                    0.000     0.006    -0.005
     Li     3      Px                   0.016     0.018    -0.002
     Li     3      Py                   0.040     0.045    -0.005
     Li     3      Pz                   0.037     0.041    -0.004
     Li     4      S                    1.000     1.000     0.000
     Li     4      S                    0.000     0.006    -0.005
     Li     4      Px                   0.016     0.018    -0.002
     Li     4      Py                   0.040     0.045    -0.005
     Li     4      Pz                   0.037     0.041    -0.004
     Li     5      S                    1.000     1.000     0.000
     Li     5      S                    0.003     0.007    -0.004
     Li     5      Px                   0.019     0.020    -0.001
     Li     5      Py                   0.041     0.045    -0.004
     Li     5      Pz                   0.043     0.044    -0.002
     Li     6      S                    1.000     1.000     0.000
     Li     6      S                    0.003     0.007    -0.004
     Li     6      Px                   0.019     0.020    -0.001
     Li     6      Py                   0.041     0.045    -0.004
     Li     6      Pz                   0.043     0.044    -0.002
      O     1      S                    0.942     0.934     0.008
      O     1      Px                   0.792     0.745     0.047
      O     1      Py                   0.808     0.795     0.013
      O     1      Pz                   0.835     0.812     0.023
      O     2      S                    0.942     0.934     0.008
      O     2      Px                   0.792     0.745     0.047
      O     2      Py                   0.808     0.795     0.013
      O     2      Pz                   0.835     0.812     0.023
      O     3      S                    0.940     0.932     0.008
      O     3      Px                   0.795     0.747     0.048
      O     3      Py                   0.812     0.797     0.014
      O     3      Pz                   0.839     0.813     0.027
      O     4      S                    0.940     0.932     0.008
      O     4      Px                   0.795     0.747     0.048
      O     4      Py                   0.812     0.797     0.014
      O     4      Pz                   0.839     0.813     0.027
      O     5      S                    0.942     0.934     0.008
      O     5      Px                   0.830     0.815     0.015
      O     5      Py                   0.839     0.784     0.055
      O     5      Pz                   0.775     0.753     0.022
      O     6      S                    0.942     0.934     0.008
      O     6      Px                   0.830     0.815     0.015
      O     6      Py                   0.839     0.784     0.055
      O     6      Pz                   0.775     0.753     0.022
      O     7      S                    0.939     0.929     0.009
      O     7      Px                   0.845     0.821     0.024
      O     7      Py                   0.846     0.783     0.063
      O     7      Pz                   0.773     0.752     0.021
      O     8      S                    0.939     0.929     0.009
      O     8      Px                   0.845     0.821     0.024
      O     8      Py                   0.846     0.783     0.063
      O     8      Pz                   0.773     0.752     0.021
      O     9      S                    0.940     0.928     0.012
      O     9      Px                   0.829     0.799     0.030
      O     9      Py                   0.779     0.750     0.029
      O     9      Pz                   0.815     0.775     0.040
      O    10      S                    0.940     0.928     0.012
      O    10      Px                   0.829     0.799     0.030
      O    10      Py                   0.779     0.750     0.029
      O    10      Pz                   0.815     0.775     0.040
      O    11      S                    0.939     0.928     0.011
      O    11      Px                   0.819     0.805     0.014
      O    11      Py                   0.772     0.749     0.023
      O    11      Pz                   0.807     0.781     0.026
      O    12      S                    0.939     0.928     0.011
      O    12      Px                   0.819     0.805     0.014
      O    12      Py                   0.772     0.749     0.023
      O    12      Pz                   0.807     0.781     0.026
      O    13      S                    0.927     0.927    -0.000
      O    13      Px                   0.755     0.756    -0.002
      O    13      Py                   0.826     0.821     0.005
      O    13      Pz                   0.811     0.808     0.002
      O    14      S                    0.927     0.927    -0.000
      O    14      Px                   0.755     0.756    -0.002
      O    14      Py                   0.826     0.821     0.005
      O    14      Pz                   0.811     0.809     0.002
      O    15      S                    0.943     0.926     0.017
      O    15      Px                   0.838     0.750     0.088
      O    15      Py                   0.837     0.789     0.048
      O    15      Pz                   0.861     0.787     0.074
      O    16      S                    0.943     0.926     0.017
      O    16      Px                   0.838     0.750     0.088
      O    16      Py                   0.837     0.789     0.048
      O    16      Pz                   0.861     0.787     0.074
      O    17      S                    0.938     0.931     0.007
      O    17      Px                   0.820     0.801     0.019
      O    17      Py                   0.865     0.828     0.037
      O    17      Pz                   0.774     0.760     0.014
      O    18      S                    0.938     0.931     0.007
      O    18      Px                   0.820     0.802     0.019
      O    18      Py                   0.865     0.828     0.037
      O    18      Pz                   0.774     0.760     0.014
      O    19      S                    0.943     0.943     0.000
      O    19      Px                   0.778     0.778    -0.000
      O    19      Py                   0.758     0.753     0.004
      O    19      Pz                   0.780     0.779     0.002
      O    20      S                    0.943     0.943     0.000
      O    20      Px                   0.778     0.778    -0.000
      O    20      Py                   0.758     0.753     0.004
      O    20      Pz                   0.780     0.779     0.002
      O    21      S                    0.938     0.928     0.010
      O    21      Px                   0.825     0.811     0.014
      O    21      Py                   0.769     0.750     0.019
      O    21      Pz                   0.804     0.779     0.025
      O    22      S                    0.938     0.929     0.010
      O    22      Px                   0.825     0.811     0.014
      O    22      Py                   0.769     0.750     0.019
      O    22      Pz                   0.804     0.779     0.025
      O    23      S                    0.926     0.927    -0.000
      O    23      Px                   0.760     0.760    -0.000
      O    23      Py                   0.823     0.819     0.004
      O    23      Pz                   0.813     0.809     0.004
      O    24      S                    0.926     0.927    -0.000
      O    24      Px                   0.760     0.760    -0.000
      O    24      Py                   0.823     0.819     0.004
      O    24      Pz                   0.814     0.809     0.004
      O    25      S                    0.932     0.924     0.007
      O    25      Px                   0.780     0.762     0.018
      O    25      Py                   0.842     0.809     0.033
      O    25      Pz                   0.834     0.812     0.022
      O    26      S                    0.932     0.924     0.007
      O    26      Px                   0.780     0.762     0.018
      O    26      Py                   0.842     0.809     0.033
      O    26      Pz                   0.834     0.812     0.022
      O    27      S                    0.939     0.939     0.000
      O    27      Px                   0.781     0.775     0.006
      O    27      Py                   0.787     0.779     0.008
      O    27      Pz                   0.814     0.807     0.007
      O    28      S                    0.939     0.939     0.000
      O    28      Px                   0.781     0.775     0.006
      O    28      Py                   0.787     0.779     0.008
      O    28      Pz                   0.814     0.807     0.007
      O    29      S                    0.940     0.932     0.008
      O    29      Px                   0.824     0.812     0.012
      O    29      Py                   0.842     0.786     0.056
      O    29      Pz                   0.770     0.751     0.018
      O    30      S                    0.940     0.932     0.008
      O    30      Px                   0.824     0.812     0.012
      O    30      Py                   0.842     0.786     0.056
      O    30      Pz                   0.770     0.751     0.018
      O    31      S                    0.939     0.930     0.010
      O    31      Px                   0.821     0.807     0.014
      O    31      Py                   0.774     0.755     0.019
      O    31      Pz                   0.811     0.782     0.029
      O    32      S                    0.939     0.930     0.010
      O    32      Px                   0.821     0.807     0.014
      O    32      Py                   0.774     0.755     0.019
      O    32      Pz                   0.811     0.782     0.029
      O    33      S                    0.940     0.929     0.011
      O    33      Px                   0.815     0.800     0.015
      O    33      Py                   0.771     0.747     0.024
      O    33      Pz                   0.806     0.778     0.029
      O    34      S                    0.940     0.929     0.011
      O    34      Px                   0.815     0.800     0.015
      O    34      Py                   0.771     0.747     0.024
      O    34      Pz                   0.806     0.778     0.029
      O    35      S                    0.940     0.931     0.008
      O    35      Px                   0.794     0.784     0.011
      O    35      Py                   0.853     0.801     0.051
      O    35      Pz                   0.797     0.765     0.031
      O    36      S                    0.940     0.931     0.008
      O    36      Px                   0.794     0.784     0.011
      O    36      Py                   0.853     0.801     0.051
      O    36      Pz                   0.797     0.765     0.031
      O    37      S                    0.942     0.934     0.008
      O    37      Px                   0.826     0.797     0.029
      O    37      Py                   0.846     0.801     0.045
      O    37      Pz                   0.773     0.753     0.021
      O    38      S                    0.942     0.934     0.008
      O    38      Px                   0.826     0.797     0.029
      O    38      Py                   0.846     0.801     0.045
      O    38      Pz                   0.773     0.753     0.021
      O    39      S                    0.940     0.932     0.008
      O    39      Px                   0.793     0.752     0.041
      O    39      Py                   0.811     0.795     0.015
      O    39      Pz                   0.838     0.812     0.026
      O    40      S                    0.940     0.932     0.008
      O    40      Px                   0.793     0.752     0.041
      O    40      Py                   0.811     0.795     0.015
      O    40      Pz                   0.838     0.812     0.026
      O    41      S                    0.944     0.937     0.007
      O    41      Px                   0.785     0.744     0.041
      O    41      Py                   0.791     0.782     0.009
      O    41      Pz                   0.813     0.801     0.012
      O    42      S                    0.944     0.937     0.007
      O    42      Px                   0.785     0.744     0.041
      O    42      Py                   0.791     0.782     0.009
      O    42      Pz                   0.813     0.801     0.012
      V     1      S                    0.995     0.995     0.000
      V     1      Px                   0.996     0.996    -0.000
      V     1      Py                   0.994     0.994     0.000
      V     1      Pz                   0.994     0.994     0.000
      V     1      Dzz                  0.351     0.326     0.025
      V     1      Dzy                  0.330     0.306     0.024
      V     1      Dzx                  0.314     0.301     0.012
      V     1      Dxx-yy               0.324     0.292     0.032
      V     1      Dxy                  0.331     0.318     0.013
      V     1      S                    0.085     0.085     0.000
      V     1      Px                   0.071     0.072    -0.001
      V     1      Py                   0.067     0.068    -0.001
      V     1      Pz                   0.072     0.071     0.001
      V     2      S                    0.995     0.995     0.000
      V     2      Px                   0.996     0.996    -0.000
      V     2      Py                   0.994     0.994     0.000
      V     2      Pz                   0.994     0.994     0.000
      V     2      Dzz                  0.351     0.326     0.025
      V     2      Dzy                  0.330     0.306     0.024
      V     2      Dzx                  0.314     0.301     0.012
      V     2      Dxx-yy               0.324     0.292     0.032
      V     2      Dxy                  0.331     0.318     0.013
      V     2      S                    0.085     0.085     0.000
      V     2      Px                   0.071     0.072    -0.001
      V     2      Py                   0.067     0.068    -0.001
      V     2      Pz                   0.072     0.071     0.001
      V     3      S                    0.995     0.995    -0.000
      V     3      Px                   0.996     0.996     0.000
      V     3      Py                   0.994     0.994     0.000
      V     3      Pz                   0.995     0.995     0.000
      V     3      Dzz                  0.307     0.299     0.009
      V     3      Dzy                  0.327     0.308     0.018
      V     3      Dzx                  0.339     0.330     0.008
      V     3      Dxx-yy               0.315     0.301     0.014
      V     3      Dxy                  0.320     0.311     0.009
      V     3      S                    0.106     0.109    -0.003
      V     3      Px                   0.080     0.085    -0.004
      V     3      Py                   0.066     0.067    -0.000
      V     3      Pz                   0.075     0.080    -0.004
      V     4      S                    0.995     0.995    -0.000
      V     4      Px                   0.996     0.996     0.000
      V     4      Py                   0.994     0.994     0.000
      V     4      Pz                   0.995     0.995     0.000
      V     4      Dzz                  0.307     0.299     0.009
      V     4      Dzy                  0.327     0.308     0.018
      V     4      Dzx                  0.339     0.330     0.008
      V     4      Dxx-yy               0.315     0.301     0.014
      V     4      Dxy                  0.320     0.311     0.009
      V     4      S                    0.106     0.109    -0.003
      V     4      Px                   0.080     0.085    -0.004
      V     4      Py                   0.066     0.067    -0.000
      V     4      Pz                   0.075     0.080    -0.004
      V     5      S                    0.995     0.995     0.000
      V     5      Px                   0.995     0.995    -0.000
      V     5      Py                   0.994     0.994     0.000
      V     5      Pz                   0.995     0.995     0.000
      V     5      Dzz                  0.347     0.320     0.027
      V     5      Dzy                  0.325     0.297     0.027
      V     5      Dzx                  0.321     0.307     0.014
      V     5      Dxx-yy               0.325     0.292     0.033
      V     5      Dxy                  0.335     0.320     0.015
      V     5      S                    0.089     0.088     0.000
      V     5      Px                   0.074     0.076    -0.002
      V     5      Py                   0.075     0.075     0.000
      V     5      Pz                   0.078     0.078    -0.000
      V     6      S                    0.995     0.995     0.000
      V     6      Px                   0.995     0.995    -0.000
      V     6      Py                   0.994     0.994     0.000
      V     6      Pz                   0.995     0.995     0.000
      V     6      Dzz                  0.347     0.320     0.027
      V     6      Dzy                  0.325     0.297     0.027
      V     6      Dzx                  0.321     0.307     0.014
      V     6      Dxx-yy               0.325     0.292     0.033
      V     6      Dxy                  0.335     0.320     0.015
      V     6      S                    0.089     0.088     0.000
      V     6      Px                   0.074     0.076    -0.002
      V     6      Py                   0.075     0.075     0.000
      V     6      Pz                   0.078     0.078    -0.000
      V     7      S                    0.995     0.995     0.000
      V     7      Px                   0.995     0.995    -0.000
      V     7      Py                   0.994     0.994     0.000
      V     7      Pz                   0.995     0.995     0.000
      V     7      Dzz                  0.338     0.315     0.023
      V     7      Dzy                  0.328     0.300     0.029
      V     7      Dzx                  0.293     0.281     0.012
      V     7      Dxx-yy               0.342     0.314     0.028
      V     7      Dxy                  0.348     0.333     0.015
      V     7      S                    0.086     0.087    -0.001
      V     7      Px                   0.063     0.066    -0.002
      V     7      Py                   0.079     0.078     0.000
      V     7      Pz                   0.086     0.085     0.001
      V     8      S                    0.995     0.995     0.000
      V     8      Px                   0.995     0.995    -0.000
      V     8      Py                   0.994     0.994     0.000
      V     8      Pz                   0.995     0.995     0.000
      V     8      Dzz                  0.338     0.315     0.023
      V     8      Dzy                  0.328     0.300     0.029
      V     8      Dzx                  0.293     0.281     0.012
      V     8      Dxx-yy               0.342     0.314     0.028
      V     8      Dxy                  0.348     0.333     0.015
      V     8      S                    0.086     0.087    -0.001
      V     8      Px                   0.063     0.066    -0.002
      V     8      Py                   0.079     0.078     0.000
      V     8      Pz                   0.086     0.085     0.001
      V     9      S                    0.995     0.995     0.000
      V     9      Px                   0.995     0.995    -0.000
      V     9      Py                   0.994     0.994     0.000
      V     9      Pz                   0.995     0.994     0.000
      V     9      Dzz                  0.348     0.324     0.024
      V     9      Dzy                  0.329     0.306     0.023
      V     9      Dzx                  0.315     0.300     0.015
      V     9      Dxx-yy               0.326     0.296     0.029
      V     9      Dxy                  0.331     0.320     0.011
      V     9      S                    0.088     0.089    -0.000
      V     9      Px                   0.079     0.080    -0.001
      V     9      Py                   0.069     0.069    -0.000
      V     9      Pz                   0.076     0.076    -0.000
      V    10      S                    0.995     0.995     0.000
      V    10      Px                   0.995     0.995    -0.000
      V    10      Py                   0.994     0.994     0.000
      V    10      Pz                   0.995     0.994     0.000
      V    10      Dzz                  0.348     0.324     0.024
      V    10      Dzy                  0.328     0.306     0.023
      V    10      Dzx                  0.315     0.300     0.015
      V    10      Dxx-yy               0.326     0.296     0.029
      V    10      Dxy                  0.331     0.320     0.011
      V    10      S                    0.088     0.089    -0.000
      V    10      Px                   0.079     0.080    -0.001
      V    10      Py                   0.069     0.069    -0.000
      V    10      Pz                   0.076     0.076    -0.000
      V    11      S                    0.995     0.995     0.000
      V    11      Px                   0.995     0.995     0.000
      V    11      Py                   0.994     0.994     0.000
      V    11      Pz                   0.995     0.995     0.000
      V    11      Dzz                  0.347     0.323     0.023
      V    11      Dzy                  0.324     0.308     0.016
      V    11      Dzx                  0.311     0.294     0.017
      V    11      Dxx-yy               0.329     0.307     0.022
      V    11      Dxy                  0.331     0.325     0.007
      V    11      S                    0.091     0.090     0.001
      V    11      Px                   0.078     0.079    -0.000
      V    11      Py                   0.064     0.066    -0.002
      V    11      Pz                   0.071     0.070     0.000
      V    12      S                    0.995     0.995     0.000
      V    12      Px                   0.995     0.995     0.000
      V    12      Py                   0.994     0.994     0.000
      V    12      Pz                   0.995     0.995     0.000
      V    12      Dzz                  0.347     0.323     0.023
      V    12      Dzy                  0.324     0.308     0.016
      V    12      Dzx                  0.311     0.294     0.017
      V    12      Dxx-yy               0.329     0.307     0.022
      V    12      Dxy                  0.331     0.325     0.007
      V    12      S                    0.091     0.090     0.001
      V    12      Px                   0.078     0.079    -0.000
      V    12      Py                   0.064     0.066    -0.002
      V    12      Pz                   0.071     0.070     0.000
     Fe     1      Dzz                  0.999     0.068     0.931
     Fe     1      Dzy                  0.994     0.246     0.748
     Fe     1      Dzx                  0.996     0.179     0.818
     Fe     1      Dxx-yy               0.997     0.176     0.822
     Fe     1      Dxy                  0.997     0.128     0.870
     Fe     1      S                    0.226     0.183     0.043
     Fe     1      Px                   0.092     0.082     0.011
     Fe     1      Py                   0.098     0.085     0.013
     Fe     1      Pz                   0.095     0.083     0.012
     Fe     2      Dzz                  0.999     0.068     0.931
     Fe     2      Dzy                  0.994     0.246     0.748
     Fe     2      Dzx                  0.996     0.179     0.818
     Fe     2      Dxx-yy               0.997     0.176     0.822
     Fe     2      Dxy                  0.997     0.128     0.870
     Fe     2      S                    0.226     0.183     0.043
     Fe     2      Px                   0.092     0.082     0.011
     Fe     2      Py                   0.098     0.085     0.013
     Fe     2      Pz                   0.095     0.083     0.012
     Fe     3      Dzz                  0.999     0.077     0.922
     Fe     3      Dzy                  0.993     0.275     0.718
     Fe     3      Dzx                  0.996     0.152     0.844
[...]
              O 5  -- V 9                    0.60         0.01          1.71857
              O 4  -- V 2                    0.62         0.01          1.72302
              O 3  -- V 1                    0.62         0.01          1.72303
              O 40 -- V 10                   0.62         0.00          1.72359
              O 39 -- V 9                    0.62         0.00          1.72359
              O 37 -- V 5                    0.59         0.01          1.72964
              O 38 -- V 6                    0.59         0.01          1.72964
              O 7  -- V 11                   0.60         0.00          1.73773
              O 8  -- V 12                   0.60         0.00          1.73773
              O 35 -- V 3                    0.59         0.01          1.74057
              O 36 -- V 4                    0.59         0.01          1.74057
              O 14 -- V 8                    0.53        -0.00          1.76292
              O 13 -- V 7                    0.53        -0.00          1.76292
              O 23 -- V 5                    0.52        -0.00          1.78338
              O 24 -- V 6                    0.52        -0.00          1.78338
              O 23 -- V 9                    0.52        -0.00          1.79430
              O 24 -- V 10                   0.52        -0.00          1.79430
              O 18 -- V 8                    0.50         0.01          1.80375
              O 17 -- V 7                    0.50         0.01          1.80376
              O 13 -- V 2                    0.50        -0.00          1.80838
              O 14 -- V 1                    0.50        -0.00          1.80838
              O 25 -- V 11                   0.48         0.00          1.83845
              O 26 -- V 12                   0.48         0.00          1.83845
              O 15 -- V 3                    0.48         0.01          1.85962
              O 16 -- V 4                    0.48         0.01          1.85963
              O 25 -- V 3                    0.38         0.00          1.89142
              O 26 -- V 4                    0.38         0.00          1.89142
              O 9  -- Fe 1                   0.34        -0.05          1.94736
              O 10 -- Fe 2                   0.34        -0.05          1.94736
              Li 6 -- O 28                   0.18         0.00          1.98078
              Li 5 -- O 27                   0.18         0.00          1.98079
              O 33 -- Fe 4                   0.30        -0.04          1.98172
              O 34 -- Fe 3                   0.30        -0.04          1.98173
              O 8  -- Fe 3                   0.28        -0.05          2.01746
              O 7  -- Fe 4                   0.28        -0.05          2.01747
              Li 4 -- O 8                    0.15         0.00          2.01937
              Li 3 -- O 7                    0.15         0.00          2.01937
              O 12 -- Fe 4                   0.29        -0.04          2.02877
              O 11 -- Fe 3                   0.29        -0.04          2.02877
              O 36 -- Fe 4                   0.26        -0.04          2.03105
              O 35 -- Fe 3                   0.26        -0.04          2.03105
              O 38 -- Fe 6                   0.28        -0.04          2.03335
              O 37 -- Fe 5                   0.28        -0.04          2.03335
              Li 1 -- O 28                   0.14         0.00          2.04013
              Li 2 -- O 27                   0.14         0.00          2.04013
              O 3  -- Fe 6                   0.28        -0.04          2.04054
              O 4  -- Fe 5                   0.28        -0.04          2.04055
              O 6  -- Fe 5                   0.28        -0.04          2.04352
              O 5  -- Fe 6                   0.28        -0.04          2.04352
              O 31 -- Fe 1                   0.30        -0.04          2.04368
              O 32 -- Fe 2                   0.30        -0.04          2.04368
              O 21 -- Fe 5                   0.30        -0.04          2.04506
              O 22 -- Fe 6                   0.30        -0.04          2.04506
              O 2  -- Fe 4                   0.28        -0.04          2.04929
              O 1  -- Fe 3                   0.28        -0.04          2.04929
              Li 3 -- O 40                   0.13         0.00          2.05108
              Li 4 -- O 39                   0.13         0.00          2.05109
              O 16 -- Fe 5                   0.30        -0.04          2.05123
              O 15 -- Fe 6                   0.30        -0.04          2.05123
              O 39 -- Fe 1                   0.27        -0.04          2.06092
              O 40 -- Fe 2                   0.27        -0.04          2.06092
              Li 3 -- O 36                   0.16         0.00          2.06346
              Li 4 -- O 35                   0.16         0.00          2.06346
              Li 5 -- O 29                   0.15         0.00          2.06650
              Li 6 -- O 30                   0.15         0.00          2.06650
              O 15 -- Fe 1                   0.29        -0.04          2.06979
              O 16 -- Fe 2                   0.29        -0.04          2.06979
              Li 1 -- O 6                    0.09         0.00          2.07342
              Li 2 -- O 5                    0.09         0.00          2.07342
              O 29 -- Fe 1                   0.25        -0.04          2.07604
              O 30 -- Fe 2                   0.25        -0.04          2.07605
              O 41 -- Fe 3                   0.25        -0.04          2.08779
              O 42 -- Fe 4                   0.25        -0.04          2.08779
              O 17 -- Fe 1                   0.18        -0.04          2.10782
              O 18 -- Fe 2                   0.18        -0.04          2.10783
              Li 1 -- O 37                   0.12         0.00          2.10932
              Li 2 -- O 38                   0.12         0.00          2.10932
              Li 1 -- O 20                   0.17         0.00          2.12344
              Li 2 -- O 19                   0.17         0.00          2.12344
              Li 3 -- O 3                    0.13         0.00          2.12973
              Li 4 -- O 4                    0.13         0.00          2.12973
              O 17 -- V 3                    0.23         0.00          2.14578
              O 18 -- V 4                    0.23         0.00          2.14579
              Li 6 -- O 2                    0.11         0.00          2.15836
              Li 5 -- O 1                    0.11         0.00          2.15836
              O 26 -- Fe 5                   0.18        -0.04          2.16404
              O 25 -- Fe 6                   0.18        -0.04          2.16404
              Li 6 -- O 18                   0.07         0.00          2.20161
              Li 5 -- O 17                   0.07         0.00          2.20161
              Li 6 -- O 20                  -0.01         0.00          2.35801
              Li 5 -- O 19                  -0.01         0.00          2.35801
              O 15 -- O 25                  -0.05        -0.01          2.50203
              O 16 -- O 26                  -0.05        -0.01          2.50203
              O 15 -- O 17                  -0.06        -0.01          2.55581
              O 16 -- O 18                  -0.06        -0.01          2.55582
              Li 1 -- O 41                   0.02        -0.00          2.57773
              Li 2 -- O 42                   0.02        -0.00          2.57773
              O 6  -- O 37                  -0.04        -0.00          2.67101
              O 5  -- O 38                  -0.04        -0.00          2.67101
              O 17 -- O 35                  -0.04        -0.00          2.68146
              O 18 -- O 36                  -0.04        -0.00          2.68147
              O 7  -- O 36                  -0.04        -0.00          2.69713
              O 8  -- O 35                  -0.04        -0.00          2.69714
              Li 2 -- O 14                  -0.01         0.00          2.71402
              Li 1 -- O 13                  -0.01         0.00          2.71402
              O 9  -- O 27                   0.00        -0.00          2.73297
              O 10 -- O 28                   0.00        -0.00          2.73297
              O 30 -- O 34                   0.00        -0.00          2.73390
              O 29 -- O 33                   0.00        -0.00          2.73390
              O 25 -- O 35                  -0.02        -0.00          2.73949
              O 26 -- O 36                  -0.02        -0.00          2.73949
              O 5  -- O 11                   0.00        -0.00          2.73978
              O 6  -- O 12                   0.00        -0.00          2.73978
              O 17 -- O 29                  -0.04        -0.00          2.74899
              O 18 -- O 30                  -0.04        -0.00          2.74900
              O 14 -- O 42                  -0.00        -0.00          2.75092
              O 13 -- O 41                  -0.00        -0.00          2.75093
              O 22 -- O 42                   0.00        -0.00          2.75938
              O 19 -- O 35                   0.01        -0.00          2.75938
              O 21 -- O 41                   0.00        -0.00          2.75938
              O 20 -- O 36                   0.01        -0.00          2.75938
              O 4  -- O 26                  -0.04        -0.00          2.75987
              O 3  -- O 25                  -0.04        -0.00          2.75987
              O 17 -- O 19                  -0.02        -0.00          2.76037
              O 18 -- O 20                  -0.02        -0.00          2.76037
              O 29 -- O 39                  -0.03        -0.00          2.77170
              O 30 -- O 40                  -0.03        -0.00          2.77170
              O 1  -- O 23                  -0.01        -0.00          2.77486
              O 2  -- O 24                  -0.01        -0.00          2.77486
              O 12 -- O 40                   0.00        -0.00          2.77659
              O 11 -- O 39                   0.00        -0.00          2.77659
              O 7  -- O 9                    0.00        -0.00          2.77810
              O 8  -- O 10                   0.00        -0.00          2.77810
              O 4  -- O 34                   0.00        -0.00          2.78516
              O 3  -- O 33                   0.00        -0.00          2.78517
              O 7  -- O 27                   0.00         0.00          2.78721
              O 8  -- O 28                   0.00         0.00          2.78721
              O 2  -- O 32                   0.00        -0.00          2.78821
              O 1  -- O 31                   0.00        -0.00          2.78822
              O 19 -- O 25                  -0.01         0.00          2.78983
              O 20 -- O 26                  -0.01         0.00          2.78983
              O 36 -- O 42                  -0.03        -0.00          2.79227
              O 35 -- O 41                  -0.03        -0.00          2.79228
              O 13 -- O 34                  -0.00         0.00          2.79766
              O 14 -- O 33                  -0.00         0.00          2.79766
              O 14 -- O 22                   0.00        -0.00          2.80503
              O 13 -- O 21                   0.00        -0.00          2.80504
              Li 4 -- O 21                  -0.02         0.00          2.81061
              Li 3 -- O 22                  -0.02         0.00          2.81061
              O 11 -- O 23                  -0.00         0.00          2.81307
              O 12 -- O 24                  -0.00         0.00          2.81307
              O 24 -- O 40                  -0.01        -0.00          2.81375
              O 23 -- O 39                  -0.01        -0.00          2.81376
              O 9  -- O 39                  -0.03        -0.00          2.81554
              O 10 -- O 40                  -0.03        -0.00          2.81554
              O 32 -- O 38                   0.00         0.00          2.81780
              O 31 -- O 37                   0.00         0.00          2.81781
              O 21 -- O 37                  -0.03        -0.00          2.82020
              O 22 -- O 38                  -0.03        -0.00          2.82020
              Li 5 -- O 23                  -0.01         0.00          2.82219
              Li 6 -- O 24                  -0.01         0.00          2.82219
              O 24 -- O 32                   0.00        -0.00          2.82498
              O 23 -- O 31                   0.00        -0.00          2.82498
              O 4  -- O 13                  -0.00        -0.00          2.82578
              O 3  -- O 14                  -0.00        -0.00          2.82578
              O 6  -- O 24                  -0.00        -0.00          2.82700
              O 5  -- O 23                  -0.00        -0.00          2.82700
              O 23 -- O 37                  -0.00        -0.00          2.83398
              O 24 -- O 38                  -0.00        -0.00          2.83399
              O 12 -- O 33                  -0.02        -0.00          2.83558
              O 11 -- O 34                  -0.02        -0.00          2.83559
              O 3  -- O 22                  -0.03        -0.00          2.83600
              O 4  -- O 21                  -0.03        -0.00          2.83600
              O 4  -- O 6                   -0.03        -0.00          2.83654
              O 3  -- O 5                   -0.03        -0.00          2.83654
              O 18 -- O 22                  -0.00         0.00          2.84185
              O 17 -- O 21                  -0.00         0.00          2.84186
              O 2  -- O 33                  -0.02        -0.00          2.84350
              O 1  -- O 34                  -0.02        -0.00          2.84351
              O 9  -- O 25                  -0.00         0.00          2.85327
              O 10 -- O 26                  -0.00         0.00          2.85327
              O 13 -- O 30                  -0.00         0.00          2.86727
              O 14 -- O 29                  -0.00         0.00          2.86727
              O 10 -- O 34                  -0.01         0.00          2.86740
              O 9  -- O 33                  -0.01         0.00          2.86740
              O 33 -- O 42                  -0.02        -0.00          2.87110
              O 34 -- O 41                  -0.02        -0.00          2.87110
              O 12 -- O 36                  -0.03        -0.00          2.87113
              O 11 -- O 35                  -0.03        -0.00          2.87113
              O 17 -- O 31                  -0.03        -0.00          2.87274
              O 18 -- O 32                  -0.03        -0.00          2.87274
              O 31 -- O 39                  -0.02        -0.00          2.87435
              O 32 -- O 40                  -0.02        -0.00          2.87435
              O 1  -- O 11                  -0.02        -0.00          2.87580
              O 2  -- O 12                  -0.02        -0.00          2.87580
              O 25 -- O 27                   0.00        -0.00          2.88278
              O 26 -- O 28                   0.00        -0.00          2.88278
              O 21 -- O 26                  -0.02        -0.00          2.88346
              O 22 -- O 25                  -0.02        -0.00          2.88346
              O 1  -- O 37                   0.01        -0.00          2.88998
              O 2  -- O 38                   0.01        -0.00          2.88998
              O 1  -- O 8                   -0.02        -0.00          2.89159
              O 2  -- O 7                   -0.02        -0.00          2.89159
              O 4  -- O 30                   0.01        -0.00          2.89508
              O 3  -- O 29                   0.01        -0.00          2.89509
              O 20 -- O 28                  -0.02        -0.00          2.89548
              O 19 -- O 27                  -0.02        -0.00          2.89549
              O 18 -- O 42                   0.00        -0.00          2.89846
              O 17 -- O 41                   0.00        -0.00          2.89847
              O 12 -- O 42                  -0.02        -0.00          2.90061
              O 11 -- O 41                  -0.02        -0.00          2.90061
              O 8  -- O 41                  -0.02        -0.00          2.90716
              O 7  -- O 42                  -0.02        -0.00          2.90716
              O 15 -- O 19                   0.00        -0.00          2.91127
              O 16 -- O 20                   0.00        -0.00          2.91128
              O 14 -- O 18                  -0.00        -0.00          2.91168
              O 13 -- O 17                  -0.00        -0.00          2.91168
              O 15 -- O 29                  -0.02        -0.00          2.91186
              O 16 -- O 30                  -0.02        -0.00          2.91186
              O 8  -- O 26                  -0.00        -0.00          2.92134
              O 7  -- O 25                  -0.00        -0.00          2.92134
              O 36 -- V 8                   -0.06        -0.00          2.92201
              O 35 -- V 7                   -0.06        -0.00          2.92201
              O 9  -- O 31                  -0.02        -0.00          2.92369
              O 10 -- O 32                  -0.02        -0.00          2.92369
              O 6  -- O 40                   0.01        -0.00          2.93247
              O 5  -- O 39                   0.01        -0.00          2.93248
              O 28 -- O 30                  -0.02        -0.00          2.94721
              O 27 -- O 29                  -0.02        -0.00          2.94721
              Li 3 -- O 24                  -0.03         0.00          2.95061
              Li 4 -- O 23                  -0.03         0.00          2.95061
              O 6  -- O 16                  -0.02        -0.00          2.96448
              O 5  -- O 15                  -0.02        -0.00          2.96449
              O 13 -- O 28                  -0.02        -0.00          2.97501
              O 14 -- O 27                  -0.02        -0.00          2.97501
              O 4  -- O 8                   -0.02        -0.00          2.97820
              O 3  -- O 7                   -0.02        -0.00          2.97820
              O 7  -- O 33                  -0.02        -0.00          2.98261
              O 8  -- O 34                  -0.02        -0.00          2.98262
              O 6  -- O 30                  -0.02         0.00          2.99457
              O 5  -- O 29                  -0.02         0.00          2.99457
              O 9  -- O 15                  -0.02        -0.00          2.99611
              O 10 -- O 16                  -0.02        -0.00          2.99611
================================================================================


Writing analysis data to castep_dos.castep_bin

Writing model to castep_dos.check
 
 A BibTeX formatted list of references used in this run has been written to 
 castep_dos.bib
 
Initialisation time =     14.90 s
Calculation time    =   6036.10 s
Finalisation time   =      6.66 s
Total time          =   6057.66 s
Peak Memory Use     = 5472812 kB
 
Overall parallel efficiency rating: Poor (42%)
 
Data was distributed by:-
G-vector (40-way); efficiency rating: Poor (42%)
