 +-------------------------------------------------+
 |                                                 |
 |      CCC   AA    SSS  TTTTT  EEEEE  PPPP        |
 |     C     A  A  S       T    E      P   P       |
 |     C     AAAA   SS     T    EEE    PPPP        |
 |     C     A  A     S    T    E      P           |
 |      CCC  A  A  SSS     T    EEEEE  P           |
 |                                                 |
 +-------------------------------------------------+
 |                                                 |
 | Welcome to Academic Release CASTEP version 25.12|
 | Ab Initio Total Energy Program                  |
 |                                                 |
 | Authors:                                        |
 | M. Segall, M. Probert, C. Pickard, P. Hasnip,   |
 | S. Clark, K. Refson, J. R. Yates,               |
 | A. Bartok-Partay, M. Payne                      |
 |                                                 |
 | Contributors:                                   |
 | P. Lindan, P. Haynes, J. White, V. Milman,      |
 | N. Govind, M. Gibson, P. Tulip, V. Cocula,      |
 | B. Montanari, D. Quigley, M. Glover,            |
 | L. Bernasconi, A. Perlov, M. Plummer,           |
 | E. McNellis, J. Meyer, J. Gale, D. Jochym       |
 | J. Aarons, B. Walker, R. Gillen, D. Jones       |
 | T. Green, I. J. Bush, C. J. Armstrong,          |
 | E. J. Higgins, E. L. Brown, M. S. McFly,        |
 | J. Wilkins, B-C. Shih, P. J. P. Byrne,          |
 | R. J. Maurer, J. C. Womack, J. Dziedzic,        |
 | L. LeBlanc, T. K. Stenczel, J. Kermode,         |
 | S. Sturniolo, B. Shi, B. Durham, M. Evans,      |
 | M. J. Smith, A. Tamerus, Z. Hawkhead,           |
 | V. Ravindran, T. Hollins, S. A. Joyce,          |
 | R. T. Strong, A. M. Reilly, S. J. Donaldson,    |
 | J. C. A. Prentice                               |
 |                                                 |
 | Copyright (c) 2000 - 2024                       |
 |                                                 |
 |     Distributed under license from Cambridge    |
 |     Enterprise for academic use only.           |
 |                                                 |
 | Please cite                                     |
 |                                                 |
 |     "First principles methods using CASTEP"     |
 |                                                 |
 |         Zeitschrift fuer Kristallographie       |
 |           220(5-6) pp. 567-570 (2005)           |
 |                                                 |
 | S. J. Clark, M. D. Segall, C. J. Pickard,       |
 | P. J. Hasnip, M. J. Probert, K. Refson,         |
 | M. C. Payne                                     |
 |                                                 |
 |       in all publications arising from          |
 |              your use of CASTEP                 |
 |                                                 |
 +-------------------------------------------------+
 |                                                 |
 |              http://www.castep.org              |
 |                                                 |
 +-------------------------------------------------+



 Compiled for linux_x86_64_gfortran10 on Sun, 13 Jul 2025 14:49:40 -0400
 from code version git version unavailable
 Compiler: GNU Fortran 13.3.0; Optimisation: fast
 Comms   : Open MPI v5.0.3
 MATHLIBS: flexiblas (IMKL) (LAPACK version 3.12.0)
 FFT Lib : fftw3 version fftw-3.3.10-sse2-avx-avx2-avx2_128
 Fundamental constants values: CODATA 2018

 Run started: Fri, 20 Feb 2026 12:06:41 -0500
 Warning in parameters_read: presetting of magnetic moments on atoms cannot be guaranteed when metals_method /= density mixing

 Atomic calculation performed for Li: 1s2 2s1

 Converged in 47 iterations to an ae energy of -202.784 eV

   ============================================================                
   | Pseudopotential Report - Date of generation 20-02-2026   |                
   ------------------------------------------------------------                
   | Element: Li Ionic charge:  3.00 Level of theory: PBE     |                
   | Atomic Solver: Koelling-Harmon                           |                
   |                                                          |                
   |               Reference Electronic Structure             |                
   |         Orbital         Occupation         Energy        |                
   |            1s              2.000           -1.906        |                
   |            2s              1.000           -0.106        |                
   |                                                          |                
   |                 Pseudopotential Definition               |                
   |        Beta     l      e      Rc     scheme   norm       |                
   |          1      0   -1.906   1.001     qc      0         |                
   |          2      0   -0.106   1.001     qc      0         |                
   |          3      0    0.250   1.001     qc      0         |                
   |         loc     1    0.000   1.001     pn      0         |                
   |                                                          |                
   | Augmentation charge Rinner = 0.699                       |                
   | No partial core correction                               |                
   ------------------------------------------------------------                
   | "1|1.0|14|16|18|10U:20(qc=7)"                            |                
   ------------------------------------------------------------                
   |      Author: Chris J. Pickard, Cambridge University      |                
   ============================================================                

 Atomic calculation performed for O: 1s2 2s2 2p4

 Converged in 61 iterations to an ae energy of -2040.902 eV

   ============================================================                
   | Pseudopotential Report - Date of generation 20-02-2026   |                
   ------------------------------------------------------------                
   | Element: O Ionic charge:  6.00 Level of theory: PBE      |                
   | Atomic Solver: Koelling-Harmon                           |                
   |                                                          |                
   |               Reference Electronic Structure             |                
   |         Orbital         Occupation         Energy        |                
   |            2s              2.000           -0.881        |                
   |            2p              4.000           -0.332        |                
   |                                                          |                
   |                 Pseudopotential Definition               |                
   |        Beta     l      e      Rc     scheme   norm       |                
   |          1      0   -0.881   1.100     qc      0         |                
   |          2      0    0.250   1.100     qc      0         |                
   |          3      1   -0.332   1.100     qc      0         |                
   |          4      1    0.250   1.100     qc      0         |                
   |         loc     2    0.000   1.100     pn      0         |                
   |                                                          |                
   | Augmentation charge Rinner = 0.769                       |                
   | Partial core correction Rc = 0.769                       |                
   ------------------------------------------------------------                
   | "2|1.1|17|20|23|20:21(qc=8)"                             |                
   ------------------------------------------------------------                
   |      Author: Chris J. Pickard, Cambridge University      |                
   ============================================================                

 Atomic calculation performed for P: 1s2 2s2 2p6 3s2 3p3

 Converged in 56 iterations to an ae energy of -9303.626 eV

   ============================================================                
   | Pseudopotential Report - Date of generation 20-02-2026   |                
   ------------------------------------------------------------                
   | Element: P Ionic charge:  5.00 Level of theory: PBE      |                
   | Atomic Solver: Koelling-Harmon                           |                
   |                                                          |                
   |               Reference Electronic Structure             |                
   |         Orbital         Occupation         Energy        |                
   |            3s              2.000           -0.513        |                
   |            3p              3.000           -0.202        |                
   |                                                          |                
   |                 Pseudopotential Definition               |                
   |        Beta     l      e      Rc     scheme   norm       |                
   |          1      0   -0.513   1.807     qc      0         |                
   |          2      0    0.250   1.807     qc      0         |                
   |          3      1   -0.202   1.807     qc      0         |                
   |          4      1    0.250   1.807     qc      0         |                
   |          5      2    0.000   1.807     qc      0         |                
   |          6      2    0.250   1.807     qc      0         |                
   |         loc     3    0.000   1.807     pn      0         |                
   |                                                          |                
   | Augmentation charge Rinner = 1.263                       |                
   | Partial core correction Rc = 1.263                       |                
   ------------------------------------------------------------                
   | "3|1.8|4|4|5|30:31:32"                                   |                
   ------------------------------------------------------------                
   |      Author: Chris J. Pickard, Cambridge University      |                
   ============================================================                

 Atomic calculation performed for Fe: 1s2 2s2 2p6 3s2 3p6 3d6 4s2

 Converged in 96 iterations to an ae energy of -34625.102 eV

   ============================================================                
   | Pseudopotential Report - Date of generation 20-02-2026   |                
   ------------------------------------------------------------                
   | Element: Fe Ionic charge:  8.00 Level of theory: PBE     |                
   | Atomic Solver: Koelling-Harmon                           |                
   |                                                          |                
   |               Reference Electronic Structure             |                
   |         Orbital         Occupation         Energy        |                
   |            3d              6.000           -0.276        |                
   |            4s              2.000           -0.194        |                
   |                                                          |                
   |                 Pseudopotential Definition               |                
   |        Beta     l      e      Rc     scheme   norm       |                
   |          1      0   -0.194   2.399     qc      0         |                
   |          2      0    0.250   2.399     qc      0         |                
   |          3      1    0.000   2.399     qc      0         |                
   |          4      1    0.250   2.399     qc      0         |                
   |          5      2   -0.276   1.997     qc      0         |                
   |          6      2    0.250   1.997     qc      0         |                
   |         loc     3    0.000   2.399     pn      0         |                
   |                                                          |                
   | Augmentation charge Rinner = 1.000                       |                
   | Partial core correction Rc = 1.000                       |                
   ------------------------------------------------------------                
   | "3|2.4|2.4|1.0|8|9|10|40:41:32U2U2(qc=5.5)"              |                
   ------------------------------------------------------------                
   |      Author: Chris J. Pickard, Cambridge University      |                
   ============================================================                

 Pseudo atomic calculation performed for Li 1s2 2s1

 Converged in 18 iterations to a total energy of -200.5098 eV

 Pseudo atomic calculation performed for O 2s2 2p4

 Converged in 24 iterations to a total energy of -432.3399 eV

 Pseudo atomic calculation performed for P 3s2 3p3

 Converged in 18 iterations to a total energy of -214.2237 eV

 Pseudo atomic calculation performed for Fe 3d6 4s2

 Converged in 34 iterations to a total energy of -853.8318 eV
 Calculation parallelised over 20 processes.
 Data is distributed by k-point(20-way)

 ************************************ Title ************************************
 

 ***************************** General Parameters ******************************
  
 output verbosity                               : normal  (1)
 write checkpoint data to                       : ml_dos.check
 type of calculation                            : Electronic Spectroscopy
 stress calculation                             : off
 density difference calculation                 : off
 electron localisation func (ELF) calculation   : off
 Hirshfeld analysis                             : off
 polarisation (Berry phase) analysis            : off
 molecular orbital projected DOS                : off
 deltaSCF calculation                           : off
 unlimited duration calculation
 timing information                             : on
 memory usage estimate                          : on
 write extra output files                       : on
 write final potential to formatted file        : off
 write final density to formatted file          : off
 write BibTeX reference list                    : on
 write OTFG pseudopotential files               : on
 write electrostatic potential file             : on
 write bands file                               : on
 checkpoint writing                             : both castep_bin and check files
  
 output         length unit                     : A
 output           mass unit                     : amu
 output           time unit                     : ps
 output         charge unit                     : e
 output           spin unit                     : hbar/2
 output         energy unit                     : eV
 output          force unit                     : eV/A
 output       velocity unit                     : A/ps
 output       pressure unit                     : GPa
 output     inv_length unit                     : 1/A
 output      frequency unit                     : cm-1
 output force constant unit                     : eV/A**2
 output         volume unit                     : A**3
 output   IR intensity unit                     : (D/A)**2/amu
 output         dipole unit                     : D
 output         efield unit                     : eV/A/e
 output        entropy unit                     : J/mol/K
 output    efield chi2 unit                     : pm/V
  
 wavefunctions paging                           : none
 random number generator seed                   :  120641819
 data distribution                              : optimal for this architecture
 optimization strategy                          : balance speed and memory

 *********************** Exchange-Correlation Parameters ***********************
  
 using functional                               : Perdew Burke Ernzerhof
 relativistic treatment                         : Koelling-Harmon
 DFT+D: Semi-empirical dispersion correction    : off

 ************************* Pseudopotential Parameters **************************
  
 pseudopotential representation                 : reciprocal space
 <beta|phi> representation                      : reciprocal space
 spin-orbit coupling                            : off

 **************************** Basis Set Parameters *****************************
  
 plane wave basis set cut-off                   :   900.0000   eV
 size of standard grid                          :     2.0000
 size of   fine   gmax                          :    30.7390   1/A
 finite basis set correction                    : none

 **************************** Electronic Parameters ****************************
  
 number of  electrons                           :  160.0    
 net charge of system                           :  0.000    
 net spin   of system                           :  0.000    
 number of  up  spins                           :  80.00    
 number of down spins                           :  80.00    
 treating system as spin-polarized
 number of bands                                :         96
 electron temperature                           :     0.0000   K

 ********************* Electronic Minimization Parameters **********************
  
 Method: Treating system as metallic with ensemble DFT treatment of electrons,
         and number of  SD  steps               :          1
         and number of  CG  steps               :          4
  
 total energy / atom convergence tol.           : 0.1000E-05   eV
 max force / atom convergence tol.              : ignored
 convergence tolerance window                   :          3   cycles
 max. number of SCF cycles                      :        100
 number of fixed-spin iterations                :         10
 smearing scheme                                : Gaussian
 smearing width                                 : 0.2000       eV
 Fermi energy convergence tolerance             : 0.2721E-13   eV
 number of occupancy cycles                     :          6
 periodic dipole correction                     : NONE

 *********************** Population Analysis Parameters ************************
  
 Population analysis with cutoff                :  3.000       A
 Population analysis output                     : summary and pdos components
 Partial DOS weights calculated

 ********************* Electronic Spectroscopy Parameters **********************
  
 electronic spectroscopy with theory level      : DFT       
 spectroscopy calculation                       : density of states
 max. number of iterations                      :         60
 max. steps per iteration                       :          5
 number of bands / k-point                      :        145
 band convergence tolerance                     : 0.1000E-05   eV
 write orbitals file                            : off

 *******************************************************************************
  

                           -------------------------------
                                      Unit Cell
                           -------------------------------
        Real Lattice(A)                      Reciprocal Lattice(1/A)
    10.4640860     0.0000000     0.0000000        0.600452377   0.000000000   0.000000000
     0.0000000     6.0661190     0.0000000        0.000000000   1.035783391   0.000000000
     0.0000000     0.0000000     4.7661350        0.000000000   0.000000000   1.318297805

                       Lattice parameters(A)       Cell Angles
                    a =     10.464086          alpha =   90.000000
                    b =      6.066119          beta  =   90.000000
                    c =      4.766135          gamma =   90.000000

                       Current cell volume =           302.537048       A**3
                                   density =             2.085792   AMU/A**3
                                           =             3.463540     g/cm^3

                           -------------------------------
                                     Cell Contents
                           -------------------------------
                         Total number of ions in cell =   28
                      Total number of species in cell =    4
                        Max number of any one species =   16

            xxxxxxxxxxxxxxxxxxxxxxxxxxxxxxxxxxxxxxxxxxxxxxxxxxxxxxxxxxxx
            x  Element    Atom        Fractional coordinates of atoms  x
            x            Number           u          v          w      x
            x----------------------------------------------------------x
            x  Li           1         0.500000   1.000000   0.500000   x 
            x  Li           2         0.000000   0.500000   0.000000   x 
            x  Li           3         0.500000   0.500000   0.500000   x 
            x  Li           4         0.000000   0.000000   0.000000   x 
            x  O            1         0.597471   0.250000   0.761809   x 
            x  O            2         0.097471   0.250000   0.738191   x 
            x  O            3         0.402529   0.750000   0.238191   x 
            x  O            4         0.902529   0.750000   0.261809   x 
            x  O            5         0.956075   0.250000   0.293629   x 
            x  O            6         0.456075   0.250000   0.206371   x 
            x  O            7         0.043925   0.750000   0.706371   x 
            x  O            8         0.543925   0.750000   0.793629   x 
            x  O            9         0.664006   0.046263   0.218641   x 
            x  O           10         0.164006   0.453737   0.281359   x 
            x  O           11         0.335994   0.546263   0.781359   x 
            x  O           12         0.835994   0.953737   0.718641   x 
            x  O           13         0.335994   0.953737   0.781359   x 
            x  O           14         0.835994   0.546263   0.718641   x 
            x  O           15         0.664006   0.453737   0.218641   x 
            x  O           16         0.164006   0.046263   0.281359   x 
            x  P            1         0.593852   0.250000   0.084178   x 
            x  P            2         0.093852   0.250000   0.415822   x 
            x  P            3         0.406148   0.750000   0.915822   x 
            x  P            4         0.906148   0.750000   0.584178   x 
            x  Fe           1         0.780877   0.250000   0.525987   x 
            x  Fe           2         0.280877   0.250000   0.974013   x 
            x  Fe           3         0.219123   0.750000   0.474013   x 
            x  Fe           4         0.719123   0.750000   0.025987   x 
            xxxxxxxxxxxxxxxxxxxxxxxxxxxxxxxxxxxxxxxxxxxxxxxxxxxxxxxxxxxx


                         No user defined ionic velocities

                           -------------------------------
                                   Details of Species
                           -------------------------------

                               Mass of species in AMU
                                    Li    6.9410000
                                    O   15.9994000
                                    P   30.9737600
                                    Fe   55.8450000

                          Electric Quadrupole Moment (Barn)
                                    Li   -0.0401000 Isotope   7
                                    O   -0.0255800 Isotope  17
                                    P    1.0000000 No Isotope Defined
                                    Fe    0.1600000 Isotope  57
         xxxxxxxxxxxxxxxxxxxxxxxxxxxxxxxxxxxxxxxxxxxxxxxxxxxxxxxxxxxxxxxxxxxxxx
         |  Element    Atom         Initial            Initial magnetic       |
         |            Number    spin polarization        moment (uB)     Fix? |
         |--------------------------------------------------------------------|
         | Li             1         0.000000              0.000       F       |
         | Li             2         0.000000              0.000       F       |
         | Li             3         0.000000              0.000       F       |
         | Li             4         0.000000              0.000       F       |
         | O              1         0.000000              0.000       F       |
         | O              2         0.000000              0.000       F       |
         | O              3         0.000000              0.000       F       |
         | O              4         0.000000              0.000       F       |
         | O              5         0.000000              0.000       F       |
         | O              6         0.000000              0.000       F       |
         | O              7         0.000000              0.000       F       |
         | O              8         0.000000              0.000       F       |
         | O              9         0.000000              0.000       F       |
         | O             10         0.000000              0.000       F       |
         | O             11         0.000000              0.000       F       |
         | O             12         0.000000              0.000       F       |
         | O             13         0.000000              0.000       F       |
         | O             14         0.000000              0.000       F       |
         | O             15         0.000000              0.000       F       |
         | O             16         0.000000              0.000       F       |
         | P              1         0.000000              0.000       F       |
         | P              2         0.000000              0.000       F       |
         | P              3         0.000000              0.000       F       |
         | P              4         0.000000              0.000       F       |
         | Fe             1         0.562500              4.500       F       |
         | Fe             2        -0.562500             -4.500       F       |
         | Fe             3         0.562500              4.500       F       |
         | Fe             4        -0.562500             -4.500       F       |
         xxxxxxxxxxxxxxxxxxxxxxxxxxxxxxxxxxxxxxxxxxxxxxxxxxxxxxxxxxxxxxxxxxxxxx



         Quantisation axis:    0.00000   0.00000   1.00000

         Units for Hubbard U values are eV
         xxxxxxxxxxxxxxxxxxxxxxxxxxxxxxxxxxxxxxxxxxxxxxxxxxxxxxxxxxxxxxxxxxxx
         |  Element     Atom     Hubbard U   values by orbital type         |
         |             Number      s          p          d          f       |
         |------------------------------------------------------------------|
         |Li            1         0.00000    0.00000    0.00000    0.00000  |
         |Li            2         0.00000    0.00000    0.00000    0.00000  |
         |Li            3         0.00000    0.00000    0.00000    0.00000  |
         |Li            4         0.00000    0.00000    0.00000    0.00000  |
         |O             1         0.00000    0.00000    0.00000    0.00000  |
         |O             2         0.00000    0.00000    0.00000    0.00000  |
         |O             3         0.00000    0.00000    0.00000    0.00000  |
         |O             4         0.00000    0.00000    0.00000    0.00000  |
         |O             5         0.00000    0.00000    0.00000    0.00000  |
         |O             6         0.00000    0.00000    0.00000    0.00000  |
         |O             7         0.00000    0.00000    0.00000    0.00000  |
         |O             8         0.00000    0.00000    0.00000    0.00000  |
         |O             9         0.00000    0.00000    0.00000    0.00000  |
         |O            10         0.00000    0.00000    0.00000    0.00000  |
         |O            11         0.00000    0.00000    0.00000    0.00000  |
         |O            12         0.00000    0.00000    0.00000    0.00000  |
         |O            13         0.00000    0.00000    0.00000    0.00000  |
         |O            14         0.00000    0.00000    0.00000    0.00000  |
         |O            15         0.00000    0.00000    0.00000    0.00000  |
         |O            16         0.00000    0.00000    0.00000    0.00000  |
         |P             1         0.00000    0.00000    0.00000    0.00000  |
         |P             2         0.00000    0.00000    0.00000    0.00000  |
         |P             3         0.00000    0.00000    0.00000    0.00000  |
         |P             4         0.00000    0.00000    0.00000    0.00000  |
         |Fe            1         0.00000    0.00000    4.40000    0.00000  |
         |Fe            2         0.00000    0.00000    4.40000    0.00000  |
         |Fe            3         0.00000    0.00000    4.40000    0.00000  |
         |Fe            4         0.00000    0.00000    4.40000    0.00000  |
         xxxxxxxxxxxxxxxxxxxxxxxxxxxxxxxxxxxxxxxxxxxxxxxxxxxxxxxxxxxxxxxxxxxx


                          Files used for pseudopotentials:
                                    Li 1|1.0|14|16|18|10U:20(qc=7)
                                    O 2|1.1|17|20|23|20:21(qc=8)
                                    P 3|1.8|4|4|5|30:31:32
                                    Fe 3|2.4|2.4|1.0|8|9|10|40:41:32U2U2(qc=5.5)

                           -------------------------------
                              k-Points For BZ Sampling
                           -------------------------------
                       MP grid size for SCF calculation is  2  4  5
                            with an offset of   0.000  0.000  0.000
                       Number of kpoints used =            20

                           -------------------------------
                               Symmetry and Constraints
                           -------------------------------

                      Maximum deviation from symmetry =  0.00000         ANG

                      Number of symmetry operations   =           1
                      Number of ionic constraints     =           3
                      Point group of crystal =     1: C1, 1, 1
                      Space group of crystal =    62: Pnma, -P 2ac 2n

             Set iprint > 1 for details on symmetry rotations/translations

                         Centre of mass is constrained
             Set iprint > 2 for details of linear ionic constraints

                         Number of cell constraints= 0
                         Cell constraints are:  1 2 3 4 5 6

                         External pressure/stress (GPa)
                          0.00000   0.00000   0.00000
                                    0.00000   0.00000
                                              0.00000
 
+---------------- MEMORY AND SCRATCH DISK ESTIMATES PER PROCESS --------------+
|                                                     Memory          Disk    |
| Baseline code, static data and system overhead      805.0 MB         0.0 MB |
| BLAS internal memory storage                          0.0 MB         0.0 MB |
| Model and support data                             1443.2 MB         0.0 MB |
| Electronic energy minimisation requirements         336.5 MB         0.0 MB |
| Force calculation requirements                       68.8 MB         0.0 MB |
|                                               ----------------------------- |
| Approx. total storage required per process         2584.7 MB         0.0 MB |
|                                                                             |
| Requirements will fluctuate during execution and may exceed these estimates |
+-----------------------------------------------------------------------------+
Calculating approximate eigenstates for fixed initial Hamiltonian
Cut-off for approx. calculation is   89.988 eV
Improving approx. states at cut-off of  450.000 eV
Resetting cut-off to  900.000 eV
Improving states further at cut-off of  900.000 eV
Calculating total energy with cut-off of  900.000 eV.

 Pseudo atomic calculation performed for Li 1s2 2s1

 Converged in 18 iterations to a total energy of -200.5098 eV

 Pseudo atomic calculation performed for O 2s2 2p4

 Converged in 24 iterations to a total energy of -432.3399 eV

 Pseudo atomic calculation performed for P 3s2 3p3

 Converged in 18 iterations to a total energy of -214.2237 eV

 Pseudo atomic calculation performed for Fe 3d6 4s2

 Converged in 34 iterations to a total energy of -853.8318 eV
------------------------------------------------------------------------ <-- SCF
SCF loop      Energy           Fermi           Energy gain       Timer   <-- SCF
                               energy          per atom          (sec)   <-- SCF
------------------------------------------------------------------------ <-- SCF
Initial  -1.20723978E+004  5.43654331E+000                        75.00  <-- SCF
      1  -1.21858933E+004  6.25149042E+000   4.05340799E+000     279.69  <-- SCF
      2  -1.21865593E+004  6.35661965E+000   2.37878746E-002     470.12  <-- SCF
      3  -1.21865722E+004  6.36460785E+000   4.58977056E-004     589.02  <-- SCF
      4  -1.21865730E+004  6.36460785E+000   2.96629311E-005     716.45  <-- SCF
      5  -1.21865734E+004  6.36460785E+000   1.29924716E-005     846.89  <-- SCF
      6  -1.21865735E+004  6.36460785E+000   4.40041760E-006     990.49  <-- SCF
      7  -1.21865736E+004  6.36460785E+000   2.82781730E-006    1118.80  <-- SCF
      8  -1.21865736E+004  6.36460785E+000   1.29563688E-006    1263.89  <-- SCF
      9  -1.21865736E+004  6.36460785E+000   8.22188431E-007    1403.88  <-- SCF
     10  -1.21869532E+004  5.54880692E+000   1.35559242E-002    1556.25  <-- SCF
     11  -1.21871083E+004  5.69168444E+000   5.53914609E-003    1692.91  <-- SCF
     12  -1.21871107E+004  5.69772953E+000   8.55643597E-005    1855.31  <-- SCF
     13  -1.21871139E+004  5.69937981E+000   1.15249595E-004    2058.30  <-- SCF
     14  -1.21871439E+004  5.70848491E+000   1.06920674E-003    2284.07  <-- SCF
     15  -1.21872709E+004  5.72320930E+000   4.53601318E-003    2445.31  <-- SCF
     16  -1.21874504E+004  5.73081690E+000   6.41080408E-003    2585.73  <-- SCF
     17  -1.21875557E+004  5.72652064E+000   3.76054027E-003    2726.40  <-- SCF
     18  -1.21875840E+004  5.72859509E+000   1.01383819E-003    2865.35  <-- SCF
     19  -1.21876052E+004  5.76328462E+000   7.54586167E-004    3030.18  <-- SCF
     20  -1.21876833E+004  5.78788891E+000   2.79069128E-003    3200.53  <-- SCF
     21  -1.21877385E+004  5.78061023E+000   1.96980183E-003    3344.10  <-- SCF
     22  -1.21877476E+004  5.77725983E+000   3.25522521E-004    3472.73  <-- SCF
     23  -1.21877489E+004  5.77643994E+000   4.68337698E-005    3611.00  <-- SCF
     24  -1.21877491E+004  5.77647579E+000   6.73157910E-006    3747.94  <-- SCF
     25  -1.21877491E+004  5.77649780E+000   9.20504831E-007    3874.65  <-- SCF
     26  -1.21877491E+004  5.77651277E+000   1.24643675E-007    4004.04  <-- SCF
     27  -1.21877491E+004  5.77651654E+000   1.74542345E-008    4215.89  <-- SCF
------------------------------------------------------------------------ <-- SCF
 
Integrated Spin Density     =   -0.113252E-12 hbar/2
Integrated |Spin Density|   =     15.7252     hbar/2
 

     Hubbard U occupation numbers
     ----------------------------
Species   Ion   l  spin               occupancies
==================================================================
  Fe       1    2   up:   1.00  1.00  1.00  1.00  1.00
                    dn:   0.04  0.06  0.14  0.15  0.99
  Fe       2    2   up:   0.04  0.06  0.14  0.15  0.99
                    dn:   1.00  1.00  1.00  1.00  1.00
  Fe       3    2   up:   1.00  1.00  1.00  1.00  1.00
                    dn:   0.04  0.06  0.14  0.15  0.99
  Fe       4    2   up:   0.04  0.06  0.14  0.15  0.99
                    dn:   1.00  1.00  1.00  1.00  1.00
==================================================================

Final energy, E             =  -12187.74911501     eV
Final free energy (E-TS)    =  -12187.74911501     eV
(energies not corrected for finite basis set)
 
NB est. 0K energy (E-0.5TS)      =  -12187.74911501     eV
 

Writing analysis data to ml_dos.castep_bin

Writing model to ml_dos.check
 
+---------------- MEMORY AND SCRATCH DISK ESTIMATES PER PROCESS --------------+
|                                                     Memory          Disk    |
|                                               ----------------------------- |
| Approx. total storage required per process         1625.1 MB         0.0 MB |
|                                                                             |
| Requirements will fluctuate during execution and may exceed these estimates |
+-----------------------------------------------------------------------------+
 
  =====================================================================
  +                                                                   +
  +                 Calculation of Spectral Properties                +
  +                                                                   +
  + Calculation re-parallelised over 20 processes.                    +
  + There are 20 k-points distributed across 20 k-point groups.       +
  + Data distributed by G-vector(1-way), k-point(20-way), band(1-way) +
  + Data distributed by k-point(20-way)                               +
  +                                                                   +
  =====================================================================

 Pseudo atomic calculation performed for Li 1s2 2s1

 Converged in 18 iterations to a total energy of -200.5098 eV

 Pseudo atomic calculation performed for O 2s2 2p4

 Converged in 24 iterations to a total energy of -432.3399 eV

 Pseudo atomic calculation performed for P 3s2 3p3

 Converged in 18 iterations to a total energy of -214.2237 eV

 Pseudo atomic calculation performed for Fe 3d6 4s2

 Converged in 34 iterations to a total energy of -853.8318 eV

 Pseudo atomic calculation performed for Li 1s2 2s1

 Converged in 18 iterations to a total energy of -200.5098 eV

 Pseudo atomic calculation performed for O 2s2 2p4

 Converged in 24 iterations to a total energy of -432.3399 eV

 Pseudo atomic calculation performed for P 3s2 3p3

 Converged in 18 iterations to a total energy of -214.2237 eV

 Pseudo atomic calculation performed for Fe 3d6 4s2

 Converged in 34 iterations to a total energy of -853.8318 eV
  Starting k-point:        1 of        1 Time:      0.00 sec  |<-- SPEC

 Pseudo atomic calculation performed for Li 1s2 2s1

 Converged in 18 iterations to a total energy of -200.5098 eV

 Pseudo atomic calculation performed for O 2s2 2p4

 Converged in 24 iterations to a total energy of -432.3399 eV

 Pseudo atomic calculation performed for P 3s2 3p3

 Converged in 18 iterations to a total energy of -214.2237 eV

 Pseudo atomic calculation performed for Fe 3d6 4s2

 Converged in 34 iterations to a total energy of -853.8318 eV
  Starting k-point:        1 of        1 Time:     55.51 sec  |<-- SPEC

 Pseudo atomic calculation performed for Li 1s2 2s1

 Converged in 18 iterations to a total energy of -200.5098 eV

 Pseudo atomic calculation performed for O 2s2 2p4

 Converged in 24 iterations to a total energy of -432.3399 eV

 Pseudo atomic calculation performed for P 3s2 3p3

 Converged in 18 iterations to a total energy of -214.2237 eV

 Pseudo atomic calculation performed for Fe 3d6 4s2

 Converged in 34 iterations to a total energy of -853.8318 eV
  Check-pointing spectral run                                 |<-- SPEC
  Total time to compute matrix elements            110.16 sec |<-- SPEC
  
  + Calculation re-parallelised over 20 processes.                    +
  + Data distributed by k-point(20-way)                               +

 Pseudo atomic calculation performed for Li 1s2 2s1

 Converged in 18 iterations to a total energy of -200.5098 eV

 Pseudo atomic calculation performed for O 2s2 2p4

 Converged in 24 iterations to a total energy of -432.3399 eV

 Pseudo atomic calculation performed for P 3s2 3p3

 Converged in 18 iterations to a total energy of -214.2237 eV

 Pseudo atomic calculation performed for Fe 3d6 4s2

 Converged in 34 iterations to a total energy of -853.8318 eV

 ************************** Forces **************************
 *                                                          *
 *               Cartesian components (eV/A)                *
 * -------------------------------------------------------- *
 *                         x            y            z      *
 *                                                          *
 * Li              1      0.00010     -0.00006     -0.00002 *
 * Li              2     -0.00008     -0.00000      0.00002 *
 * Li              3      0.00009      0.00002     -0.00002 *
 * Li              4     -0.00007     -0.00003      0.00001 *
 * O               1     -0.13119      0.00006     -0.04889 *
 * O               2     -0.13121     -0.00004      0.04885 *
 * O               3      0.13120     -0.00002      0.04886 *
 * O               4      0.13121     -0.00002     -0.04887 *
 * O               5      0.06425     -0.00008     -0.14899 *
 * O               6      0.06428      0.00003      0.14901 *
 * O               7     -0.06427      0.00003      0.14901 *
 * O               8     -0.06428     -0.00003     -0.14903 *
 * O               9     -0.01677     -0.01364      0.02735 *
 * O              10     -0.01648      0.01339     -0.02770 *
 * O              11      0.01648     -0.01342     -0.02769 *
 * O              12      0.01656      0.01394      0.02752 *
 * O              13      0.01648      0.01338     -0.02769 *
 * O              14      0.01648     -0.01284      0.02790 *
 * O              15     -0.01628      0.01314      0.02807 *
 * O              16     -0.01650     -0.01341     -0.02769 *
 * P               1     -0.01894     -0.00015     -0.05937 *
 * P               2     -0.01894     -0.00000      0.05937 *
 * P               3      0.01895     -0.00003      0.05937 *
 * P               4      0.01894     -0.00009     -0.05937 *
 * Fe              1      0.05033     -0.00015      0.07147 *
 * Fe              2      0.05031     -0.00002     -0.07148 *
 * Fe              3     -0.05031     -0.00002     -0.07148 *
 * Fe              4     -0.05031      0.00005      0.07147 *
 *                                                          *
 ************************************************************

 Pseudo atomic calculation performed for Li 1s2 2s1

 Converged in 18 iterations to a total energy of -200.5098 eV

 Pseudo atomic calculation performed for O 2s2 2p4

 Converged in 24 iterations to a total energy of -432.3399 eV

 Pseudo atomic calculation performed for P 3s2 3p3

 Converged in 18 iterations to a total energy of -214.2237 eV

 Pseudo atomic calculation performed for Fe 3d6 4s2

 Converged in 34 iterations to a total energy of -853.8318 eV
Charge spilling parameter for spin component 1 = 0.85%
Charge spilling parameter for spin component 2 = 0.85%

                   Orbital Populations                  
  ---------------------------------------------------------------
     Ion    Atom   Orbital              Up        Down      Spin
  ---------------------------------------------------------------
     Li     1      S                    1.001     1.001     0.000
     Li     1      S                    0.025     0.024     0.001
     Li     1      Px                   0.037     0.039    -0.002
     Li     1      Py                   0.057     0.058    -0.000
     Li     1      Pz                   0.026     0.022     0.004
     Li     2      S                    1.001     1.001    -0.000
     Li     2      S                    0.024     0.025    -0.001
     Li     2      Px                   0.039     0.037     0.002
     Li     2      Py                   0.058     0.058     0.000
     Li     2      Pz                   0.022     0.026    -0.004
     Li     3      S                    1.001     1.001     0.000
     Li     3      S                    0.025     0.024     0.001
     Li     3      Px                   0.037     0.039    -0.002
     Li     3      Py                   0.058     0.058    -0.000
     Li     3      Pz                   0.026     0.022     0.004
     Li     4      S                    1.001     1.001     0.000
     Li     4      S                    0.024     0.025    -0.001
     Li     4      Px                   0.039     0.037     0.002
     Li     4      Py                   0.058     0.058     0.000
     Li     4      Pz                   0.022     0.026    -0.004
      O     1      S                    0.930     0.927     0.003
      O     1      Px                   0.885     0.877     0.008
      O     1      Py                   0.900     0.895     0.005
      O     1      Pz                   0.766     0.765     0.001
      O     2      S                    0.927     0.930    -0.003
      O     2      Px                   0.877     0.885    -0.008
      O     2      Py                   0.895     0.900    -0.005
      O     2      Pz                   0.765     0.766    -0.001
      O     3      S                    0.930     0.927     0.003
      O     3      Px                   0.885     0.877     0.008
      O     3      Py                   0.900     0.895     0.005
      O     3      Pz                   0.766     0.765     0.001
      O     4      S                    0.927     0.930    -0.003
      O     4      Px                   0.877     0.884    -0.007
      O     4      Py                   0.895     0.900    -0.005
      O     4      Pz                   0.765     0.766    -0.001
      O     5      S                    0.932     0.928     0.004
      O     5      Px                   0.785     0.777     0.007
      O     5      Py                   0.901     0.898     0.003
      O     5      Pz                   0.866     0.863     0.003
      O     6      S                    0.928     0.932    -0.004
      O     6      Px                   0.777     0.784    -0.007
      O     6      Py                   0.898     0.901    -0.004
      O     6      Pz                   0.863     0.866    -0.003
      O     7      S                    0.932     0.928     0.004
      O     7      Px                   0.785     0.777     0.007
      O     7      Py                   0.901     0.898     0.004
      O     7      Pz                   0.867     0.863     0.004
      O     8      S                    0.928     0.932    -0.004
      O     8      Px                   0.777     0.784    -0.007
      O     8      Py                   0.898     0.902    -0.004
      O     8      Pz                   0.863     0.867    -0.004
      O     9      S                    0.929     0.930    -0.001
      O     9      Px                   0.872     0.875    -0.002
      O     9      Py                   0.809     0.813    -0.004
      O     9      Pz                   0.862     0.863    -0.001
      O    10      S                    0.930     0.929     0.001
      O    10      Px                   0.875     0.872     0.002
      O    10      Py                   0.813     0.809     0.004
      O    10      Pz                   0.863     0.862     0.001
      O    11      S                    0.929     0.930    -0.001
      O    11      Px                   0.873     0.874    -0.002
      O    11      Py                   0.809     0.813    -0.004
      O    11      Pz                   0.862     0.863    -0.000
      O    12      S                    0.930     0.928     0.001
      O    12      Px                   0.874     0.873     0.002
      O    12      Py                   0.813     0.809     0.004
      O    12      Pz                   0.863     0.862     0.001
      O    13      S                    0.928     0.930    -0.001
      O    13      Px                   0.873     0.874    -0.002
      O    13      Py                   0.809     0.813    -0.004
      O    13      Pz                   0.862     0.862    -0.000
      O    14      S                    0.930     0.928     0.001
      O    14      Px                   0.874     0.873     0.002
      O    14      Py                   0.813     0.809     0.004
      O    14      Pz                   0.863     0.862     0.001
      O    15      S                    0.929     0.930    -0.001
      O    15      Px                   0.873     0.874    -0.002
      O    15      Py                   0.809     0.813    -0.004
      O    15      Pz                   0.862     0.863    -0.001
      O    16      S                    0.930     0.929     0.001
      O    16      Px                   0.875     0.873     0.002
      O    16      Py                   0.813     0.809     0.004
      O    16      Pz                   0.863     0.862     0.001
      P     1      S                    0.489     0.491    -0.002
      P     1      Px                   0.327     0.328    -0.000
      P     1      Py                   0.340     0.336     0.004
      P     1      Pz                   0.323     0.330    -0.007
      P     2      S                    0.491     0.489     0.002
      P     2      Px                   0.328     0.328     0.000
      P     2      Py                   0.336     0.340    -0.004
      P     2      Pz                   0.330     0.323     0.007
      P     3      S                    0.489     0.491    -0.002
      P     3      Px                   0.327     0.328    -0.000
      P     3      Py                   0.340     0.336     0.004
      P     3      Pz                   0.323     0.330    -0.007
      P     4      S                    0.491     0.489     0.002
      P     4      Px                   0.328     0.328     0.000
      P     4      Py                   0.336     0.340    -0.004
      P     4      Pz                   0.330     0.323     0.007
     Fe     1      Dzz                  1.002     0.806     0.197
     Fe     1      Dzy                  1.002     0.055     0.947
     Fe     1      Dzx                  1.002     0.129     0.874
     Fe     1      Dxx-yy               1.002     0.179     0.823
     Fe     1      Dxy                  1.003     0.049     0.954
     Fe     1      S                    0.185     0.140     0.045
     Fe     1      Px                   0.081     0.067     0.014
     Fe     1      Py                   0.087     0.064     0.023
     Fe     1      Pz                   0.052     0.039     0.013
     Fe     2      Dzz                  0.806     1.003    -0.197
     Fe     2      Dzy                  0.055     1.003    -0.948
     Fe     2      Dzx                  0.129     1.003    -0.874
     Fe     2      Dxx-yy               0.179     1.002    -0.823
     Fe     2      Dxy                  0.049     1.003    -0.955
     Fe     2      S                    0.140     0.185    -0.045
     Fe     2      Px                   0.067     0.081    -0.014
     Fe     2      Py                   0.064     0.087    -0.023
     Fe     2      Pz                   0.039     0.052    -0.013
     Fe     3      Dzz                  1.003     0.806     0.197
     Fe     3      Dzy                  1.002     0.055     0.948
     Fe     3      Dzx                  1.003     0.129     0.874
     Fe     3      Dxx-yy               1.002     0.179     0.823
     Fe     3      Dxy                  1.004     0.049     0.955
     Fe     3      S                    0.185     0.140     0.045
     Fe     3      Px                   0.081     0.067     0.014
     Fe     3      Py                   0.087     0.064     0.023
     Fe     3      Pz                   0.052     0.039     0.013
     Fe     4      Dzz                  0.806     1.003    -0.197
     Fe     4      Dzy                  0.055     1.002    -0.948
     Fe     4      Dzx                  0.129     1.002    -0.874
     Fe     4      Dxx-yy               0.179     1.002    -0.823
     Fe     4      Dxy                  0.049     1.003    -0.954
     Fe     4      S                    0.140     0.185    -0.045
     Fe     4      Px                   0.067     0.081    -0.014
     Fe     4      Py                   0.064     0.087    -0.023
     Fe     4      Pz                   0.039     0.052    -0.013
  ---------------------------------------------------------------
                           Total:      79.997    79.997     0.000
  ---------------------------------------------------------------

     Atomic Populations (Mulliken)
     -----------------------------
Species          Ion Spin      s       p       d       f      Total   Charge(e)   Spin(hbar/2)
==============================================================================================
  Li              1   up:     1.026   0.120   0.000   0.000   1.146     0.710        0.002
                  1   dn:     1.025   0.119   0.000   0.000   1.144
  Li              2   up:     1.025   0.119   0.000   0.000   1.144     0.710       -0.002
                  2   dn:     1.026   0.120   0.000   0.000   1.146
  Li              3   up:     1.026   0.120   0.000   0.000   1.146     0.710        0.002
                  3   dn:     1.025   0.119   0.000   0.000   1.144
  Li              4   up:     1.025   0.119   0.000   0.000   1.144     0.710       -0.002
                  4   dn:     1.026   0.120   0.000   0.000   1.146
  O               1   up:     0.930   2.551   0.000   0.000   3.481    -0.944        0.017
                  1   dn:     0.927   2.537   0.000   0.000   3.464
  O               2   up:     0.927   2.537   0.000   0.000   3.463    -0.944       -0.017
                  2   dn:     0.930   2.551   0.000   0.000   3.481
  O               3   up:     0.930   2.551   0.000   0.000   3.481    -0.944        0.017
                  3   dn:     0.927   2.537   0.000   0.000   3.464
  O               4   up:     0.927   2.537   0.000   0.000   3.463    -0.944       -0.017
                  4   dn:     0.930   2.551   0.000   0.000   3.481
  O               5   up:     0.932   2.552   0.000   0.000   3.484    -0.950        0.018
                  5   dn:     0.928   2.539   0.000   0.000   3.466
  O               6   up:     0.928   2.538   0.000   0.000   3.466    -0.949       -0.018
                  6   dn:     0.932   2.552   0.000   0.000   3.484
  O               7   up:     0.932   2.553   0.000   0.000   3.484    -0.950        0.018
                  7   dn:     0.928   2.538   0.000   0.000   3.466
  O               8   up:     0.928   2.538   0.000   0.000   3.466    -0.950       -0.019
                  8   dn:     0.932   2.553   0.000   0.000   3.484
  O               9   up:     0.929   2.544   0.000   0.000   3.472    -0.952       -0.008
                  9   dn:     0.930   2.550   0.000   0.000   3.480
  O              10   up:     0.930   2.550   0.000   0.000   3.480    -0.952        0.008
                 10   dn:     0.929   2.544   0.000   0.000   3.472
  O              11   up:     0.929   2.544   0.000   0.000   3.472    -0.952       -0.007
                 11   dn:     0.930   2.550   0.000   0.000   3.480
  O              12   up:     0.930   2.550   0.000   0.000   3.480    -0.953        0.007
                 12   dn:     0.928   2.544   0.000   0.000   3.473
  O              13   up:     0.928   2.544   0.000   0.000   3.472    -0.952       -0.007
                 13   dn:     0.930   2.550   0.000   0.000   3.480
  O              14   up:     0.930   2.550   0.000   0.000   3.480    -0.952        0.007
                 14   dn:     0.928   2.544   0.000   0.000   3.472
  O              15   up:     0.929   2.544   0.000   0.000   3.472    -0.952       -0.007
                 15   dn:     0.930   2.550   0.000   0.000   3.480
  O              16   up:     0.930   2.551   0.000   0.000   3.480    -0.953        0.008
                 16   dn:     0.929   2.544   0.000   0.000   3.472
  P               1   up:     0.489   0.990   0.000   0.000   1.479     2.037       -0.005
                  1   dn:     0.491   0.994   0.000   0.000   1.484
  P               2   up:     0.491   0.994   0.000   0.000   1.484     2.036        0.005
                  2   dn:     0.489   0.990   0.000   0.000   1.479
  P               3   up:     0.489   0.990   0.000   0.000   1.479     2.037       -0.005
                  3   dn:     0.491   0.994   0.000   0.000   1.484
  P               4   up:     0.491   0.994   0.000   0.000   1.484     2.037        0.005
                  4   dn:     0.489   0.990   0.000   0.000   1.479
  Fe              1   up:     0.185   0.221   5.012   0.000   5.417     1.055        3.890
                  1   dn:     0.140   0.170   1.217   0.000   1.527
  Fe              2   up:     0.140   0.170   1.218   0.000   1.528     1.052       -3.892
                  2   dn:     0.185   0.221   5.014   0.000   5.420
  Fe              3   up:     0.185   0.221   5.014   0.000   5.419     1.053        3.891
                  3   dn:     0.140   0.170   1.218   0.000   1.528
  Fe              4   up:     0.140   0.170   1.218   0.000   1.528     1.054       -3.890
                  4   dn:     0.185   0.221   5.013   0.000   5.418
==============================================================================================

                 Bond                   Population        Spin       Length (A)
================================================================================
              O 4  -- P 4                    0.66        -0.00          1.53692
              O 3  -- P 3                    0.66         0.00          1.53692
              O 2  -- P 2                    0.66        -0.00          1.53692
              O 1  -- P 1                    0.66         0.00          1.53692
              O 8  -- P 3                    0.67        -0.00          1.55490
              O 7  -- P 4                    0.67         0.00          1.55490
              O 6  -- P 1                    0.67        -0.00          1.55490
              O 5  -- P 2                    0.67         0.00          1.55490
              O 15 -- P 1                    0.61         0.00          1.57386
              O 14 -- P 4                    0.61        -0.00          1.57386
              O 12 -- P 4                    0.61        -0.00          1.57386
              O 9  -- P 1                    0.61         0.00          1.57386
              O 13 -- P 3                    0.61         0.00          1.57386
              O 11 -- P 3                    0.61         0.00          1.57386
              O 16 -- P 2                    0.61        -0.00          1.57386
              O 10 -- P 2                    0.61        -0.00          1.57386
              O 16 -- Fe 3                   0.27        -0.02          2.09894
              O 9  -- Fe 4                   0.27         0.02          2.09894
              O 15 -- Fe 4                   0.27         0.02          2.09894
              O 10 -- Fe 3                   0.27        -0.02          2.09894
              O 14 -- Fe 1                   0.27        -0.02          2.09894
              O 13 -- Fe 2                   0.27         0.02          2.09894
              O 12 -- Fe 1                   0.27        -0.02          2.09894
              O 11 -- Fe 2                   0.27         0.02          2.09894
              Li 4 -- O 7                    0.09        -0.00          2.11416
              Li 4 -- O 5                    0.09        -0.00          2.11416
              Li 3 -- O 8                    0.09         0.00          2.11416
              Li 3 -- O 6                    0.09         0.00          2.11416
              Li 2 -- O 7                    0.09        -0.00          2.11416
              Li 2 -- O 5                    0.09        -0.00          2.11416
              Li 1 -- O 8                    0.09         0.00          2.11416
              Li 1 -- O 6                    0.09         0.00          2.11416
              O 8  -- Fe 4                   0.22         0.02          2.14182
              O 5  -- Fe 1                   0.22        -0.02          2.14182
              O 7  -- Fe 3                   0.22        -0.02          2.14182
              O 6  -- Fe 2                   0.22         0.02          2.14182
              Li 4 -- O 12                   0.05        -0.00          2.19597
              Li 3 -- O 15                   0.05         0.00          2.19597
              Li 3 -- O 11                   0.05         0.00          2.19597
              Li 2 -- O 14                   0.05        -0.00          2.19597
              Li 1 -- O 13                   0.05         0.00          2.19597
              Li 1 -- O 9                    0.05         0.00          2.19597
              Li 4 -- O 16                   0.05        -0.00          2.19597
              Li 2 -- O 10                   0.05        -0.00          2.19597
              Li 3 -- O 3                    0.16         0.00          2.21296
              Li 3 -- O 1                    0.16         0.00          2.21296
              Li 1 -- O 3                    0.16         0.00          2.21296
              Li 1 -- O 1                    0.16         0.00          2.21296
              Li 4 -- O 4                    0.16        -0.00          2.21296
              Li 4 -- O 2                    0.16        -0.00          2.21296
              Li 2 -- O 4                    0.16        -0.00          2.21296
              Li 2 -- O 2                    0.16        -0.00          2.21296
              O 2  -- Fe 2                   0.20         0.02          2.22408
              O 3  -- Fe 3                   0.20        -0.02          2.22408
              O 1  -- Fe 1                   0.20        -0.02          2.22408
              O 4  -- Fe 4                   0.19         0.02          2.22408
              O 16 -- Fe 2                   0.13         0.02          2.27351
              O 14 -- Fe 4                   0.13         0.02          2.27351
              O 13 -- Fe 3                   0.13        -0.02          2.27351
              O 12 -- Fe 4                   0.13         0.02          2.27351
              O 11 -- Fe 3                   0.13        -0.02          2.27351
              O 10 -- Fe 2                   0.13         0.02          2.27351
              O 15 -- Fe 1                   0.13        -0.02          2.27351
              O 9  -- Fe 1                   0.13        -0.02          2.27351
              O 12 -- O 14                  -0.14         0.00          2.47179
              O 11 -- O 13                  -0.14        -0.00          2.47179
              O 10 -- O 16                  -0.14         0.00          2.47179
              O 9  -- O 15                  -0.14        -0.00          2.47179
              O 8  -- O 13                  -0.13         0.00          2.50300
              O 8  -- O 11                  -0.13         0.00          2.50300
              O 7  -- O 14                  -0.13        -0.00          2.50300
              O 7  -- O 12                  -0.13        -0.00          2.50300
              O 6  -- O 15                  -0.13         0.00          2.50300
              O 6  -- O 9                   -0.13         0.00          2.50300
              O 5  -- O 16                  -0.13        -0.00          2.50300
              O 5  -- O 10                  -0.13        -0.00          2.50300
              O 4  -- O 7                   -0.13         0.00          2.58431
              O 3  -- O 8                   -0.13        -0.00          2.58431
              O 1  -- O 6                   -0.13        -0.00          2.58431
              O 2  -- O 5                   -0.13         0.00          2.58431
              O 4  -- O 14                  -0.13         0.00          2.59863
              O 4  -- O 12                  -0.13         0.00          2.59863
              O 3  -- O 13                  -0.13        -0.00          2.59863
              O 3  -- O 11                  -0.13        -0.00          2.59863
              O 2  -- O 16                  -0.13         0.00          2.59863
              O 2  -- O 10                  -0.13         0.00          2.59863
              O 1  -- O 15                  -0.13        -0.00          2.59863
              O 1  -- O 9                   -0.13        -0.00          2.59863
              Li 4 -- P 2                   -0.30         0.00          2.68181
              Li 3 -- P 3                   -0.30        -0.00          2.68181
              Li 3 -- P 1                   -0.30        -0.00          2.68181
              Li 2 -- P 4                   -0.30         0.00          2.68181
              Li 2 -- P 2                   -0.30         0.00          2.68181
              Li 1 -- P 3                   -0.30        -0.00          2.68181
              Li 1 -- P 1                   -0.30        -0.00          2.68181
              Li 4 -- P 4                   -0.30         0.00          2.68181
               P 4 -- Fe 4                  -0.22         0.00          2.87473
               P 3 -- Fe 3                  -0.22        -0.00          2.87473
               P 2 -- Fe 2                  -0.22         0.00          2.87473
               P 1 -- Fe 1                  -0.22        -0.00          2.87473
              O 7  -- O 16                  -0.03        -0.00          2.98530
              O 6  -- O 13                  -0.03         0.00          2.98530
              O 8  -- O 15                  -0.03         0.00          2.98530
              O 8  -- O 9                   -0.03         0.00          2.98530
              O 7  -- O 10                  -0.03        -0.00          2.98530
              O 6  -- O 11                  -0.03         0.00          2.98530
              O 5  -- O 14                  -0.03        -0.00          2.98530
              O 5  -- O 12                  -0.03        -0.00          2.98530
================================================================================


Writing analysis data to ml_dos.castep_bin

Writing model to ml_dos.check
 
 A BibTeX formatted list of references used in this run has been written to 
 ml_dos.bib
 
Initialisation time =     12.95 s
Calculation time    =   4436.33 s
Finalisation time   =      2.59 s
Total time          =   4451.87 s
Peak Memory Use     = 3154956 kB
 
Overall parallel efficiency rating: Good (74%)
 
Data was distributed by:-
k-point (20-way); efficiency rating: Good (74%)
