 +-------------------------------------------------+
 |                                                 |
 |      CCC   AA    SSS  TTTTT  EEEEE  PPPP        |
 |     C     A  A  S       T    E      P   P       |
 |     C     AAAA   SS     T    EEE    PPPP        |
 |     C     A  A     S    T    E      P           |
 |      CCC  A  A  SSS     T    EEEEE  P           |
 |                                                 |
 +-------------------------------------------------+
 |                                                 |
 | Welcome to Academic Release CASTEP version 25.12|
 | Ab Initio Total Energy Program                  |
 |                                                 |
 | Authors:                                        |
 | M. Segall, M. Probert, C. Pickard, P. Hasnip,   |
 | S. Clark, K. Refson, J. R. Yates,               |
 | A. Bartok-Partay, M. Payne                      |
 |                                                 |
 | Contributors:                                   |
 | P. Lindan, P. Haynes, J. White, V. Milman,      |
 | N. Govind, M. Gibson, P. Tulip, V. Cocula,      |
 | B. Montanari, D. Quigley, M. Glover,            |
 | L. Bernasconi, A. Perlov, M. Plummer,           |
 | E. McNellis, J. Meyer, J. Gale, D. Jochym       |
 | J. Aarons, B. Walker, R. Gillen, D. Jones       |
 | T. Green, I. J. Bush, C. J. Armstrong,          |
 | E. J. Higgins, E. L. Brown, M. S. McFly,        |
 | J. Wilkins, B-C. Shih, P. J. P. Byrne,          |
 | R. J. Maurer, J. C. Womack, J. Dziedzic,        |
 | L. LeBlanc, T. K. Stenczel, J. Kermode,         |
 | S. Sturniolo, B. Shi, B. Durham, M. Evans,      |
 | M. J. Smith, A. Tamerus, Z. Hawkhead,           |
 | V. Ravindran, T. Hollins, S. A. Joyce,          |
 | R. T. Strong, A. M. Reilly, S. J. Donaldson,    |
 | J. C. A. Prentice                               |
 |                                                 |
 | Copyright (c) 2000 - 2024                       |
 |                                                 |
 |     Distributed under license from Cambridge    |
 |     Enterprise for academic use only.           |
 |                                                 |
 | Please cite                                     |
 |                                                 |
 |     "First principles methods using CASTEP"     |
 |                                                 |
 |         Zeitschrift fuer Kristallographie       |
 |           220(5-6) pp. 567-570 (2005)           |
 |                                                 |
 | S. J. Clark, M. D. Segall, C. J. Pickard,       |
 | P. J. Hasnip, M. J. Probert, K. Refson,         |
 | M. C. Payne                                     |
 |                                                 |
 |       in all publications arising from          |
 |              your use of CASTEP                 |
 |                                                 |
 +-------------------------------------------------+
 |                                                 |
 |              http://www.castep.org              |
 |                                                 |
 +-------------------------------------------------+



 Compiled for linux_x86_64_gfortran10 on Wed, 30 Jul 2025 10:20:48 -0700
 from code version git version unavailable
 Compiler: GNU Fortran 13.3.0; Optimisation: fast
 Comms   : Open MPI v5.0.3
 MATHLIBS: flexiblas (AOCL) (LAPACK version 3.12.0)
 FFT Lib : fftw3 version fftw-3.3.10-sse2-avx-avx2-avx2_128
 Fundamental constants values: CODATA 2018

 Run started: Mon, 03 Nov 2025 09:34:18 -0800

 Atomic calculation performed for Li: 1s2 2s1

 Converged in 47 iterations to an ae energy of -202.784 eV

   ============================================================                
   | Pseudopotential Report - Date of generation  3-11-2025   |                
   ------------------------------------------------------------                
   | Element: Li Ionic charge:  3.00 Level of theory: PBE     |                
   | Atomic Solver: Koelling-Harmon                           |                
   |                                                          |                
   |               Reference Electronic Structure             |                
   |         Orbital         Occupation         Energy        |                
   |            1s              2.000           -1.906        |                
   |            2s              1.000           -0.106        |                
   |                                                          |                
   |                 Pseudopotential Definition               |                
   |        Beta     l      e      Rc     scheme   norm       |                
   |          1      0   -1.906   1.001     qc      0         |                
   |          2      0   -0.106   1.001     qc      0         |                
   |          3      0    0.250   1.001     qc      0         |                
   |         loc     1    0.000   1.001     pn      0         |                
   |                                                          |                
   | Augmentation charge Rinner = 0.699                       |                
   | No partial core correction                               |                
   ------------------------------------------------------------                
   | "1|1.0|14|16|18|10U:20(qc=7)"                            |                
   ------------------------------------------------------------                
   |      Author: Chris J. Pickard, Cambridge University      |                
   ============================================================                

 Atomic calculation performed for O: 1s2 2s2 2p4

 Converged in 61 iterations to an ae energy of -2040.902 eV

   ============================================================                
   | Pseudopotential Report - Date of generation  3-11-2025   |                
   ------------------------------------------------------------                
   | Element: O Ionic charge:  6.00 Level of theory: PBE      |                
   | Atomic Solver: Koelling-Harmon                           |                
   |                                                          |                
   |               Reference Electronic Structure             |                
   |         Orbital         Occupation         Energy        |                
   |            2s              2.000           -0.881        |                
   |            2p              4.000           -0.332        |                
   |                                                          |                
   |                 Pseudopotential Definition               |                
   |        Beta     l      e      Rc     scheme   norm       |                
   |          1      0   -0.881   1.100     qc      0         |                
   |          2      0    0.250   1.100     qc      0         |                
   |          3      1   -0.332   1.100     qc      0         |                
   |          4      1    0.250   1.100     qc      0         |                
   |         loc     2    0.000   1.100     pn      0         |                
   |                                                          |                
   | Augmentation charge Rinner = 0.769                       |                
   | Partial core correction Rc = 0.769                       |                
   ------------------------------------------------------------                
   | "2|1.1|17|20|23|20:21(qc=8)"                             |                
   ------------------------------------------------------------                
   |      Author: Chris J. Pickard, Cambridge University      |                
   ============================================================                

 Atomic calculation performed for Al: 1s2 2s2 2p6 3s2 3p1

 Converged in 54 iterations to an ae energy of -6603.783 eV

   ============================================================                
   | Pseudopotential Report - Date of generation  3-11-2025   |                
   ------------------------------------------------------------                
   | Element: Al Ionic charge:  3.00 Level of theory: PBE     |                
   | Atomic Solver: Koelling-Harmon                           |                
   |                                                          |                
   |               Reference Electronic Structure             |                
   |         Orbital         Occupation         Energy        |                
   |            3s              2.000           -0.285        |                
   |            3p              1.000           -0.100        |                
   |                                                          |                
   |                 Pseudopotential Definition               |                
   |        Beta     l      e      Rc     scheme   norm       |                
   |          1      0   -0.285   2.192     qc      0         |                
   |          2      0    0.250   2.192     qc      0         |                
   |          3      1   -0.100   2.192     qc      0         |                
   |          4      1    0.250   2.192     qc      0         |                
   |          5      2    0.000   2.000     qc      0         |                
   |          6      2    0.250   2.000     qc      0         |                
   |         loc     3    0.000   2.192     pn      0         |                
   |                                                          |                
   | Augmentation charge Rinner = 1.398                       |                
   | Partial core correction Rc = 1.398                       |                
   ------------------------------------------------------------                
   | "3|2.2|2.2|1.4|4|5|5|30:31:32U2U2"                       |                
   ------------------------------------------------------------                
   |      Author: Chris J. Pickard, Cambridge University      |                
   ============================================================                

 Pseudo atomic calculation performed for Li 1s2 2s1

 Converged in 18 iterations to a total energy of -200.5098 eV

 Pseudo atomic calculation performed for O 2s2 2p4

 Converged in 24 iterations to a total energy of -432.3399 eV

 Pseudo atomic calculation performed for Al 3s2 3p1

 Converged in 15 iterations to a total energy of -107.1308 eV
 Calculation parallelised over 16 processes.
 Data is distributed by k-point(16-way)

 ************************************ Title ************************************
 

 ***************************** General Parameters ******************************
  
 output verbosity                               : normal  (1)
 write checkpoint data to                       : ml_dos.check
 type of calculation                            : Electronic Spectroscopy
 stress calculation                             : off
 density difference calculation                 : off
 electron localisation func (ELF) calculation   : off
 Hirshfeld analysis                             : off
 polarisation (Berry phase) analysis            : off
 molecular orbital projected DOS                : off
 deltaSCF calculation                           : off
 unlimited duration calculation
 timing information                             : on
 memory usage estimate                          : on
 write extra output files                       : on
 write final potential to formatted file        : off
 write final density to formatted file          : off
 write BibTeX reference list                    : on
 write OTFG pseudopotential files               : on
 write electrostatic potential file             : on
 write bands file                               : on
 checkpoint writing                             : both castep_bin and check files
  
 output         length unit                     : A
 output           mass unit                     : amu
 output           time unit                     : ps
 output         charge unit                     : e
 output           spin unit                     : hbar/2
 output         energy unit                     : eV
 output          force unit                     : eV/A
 output       velocity unit                     : A/ps
 output       pressure unit                     : GPa
 output     inv_length unit                     : 1/A
 output      frequency unit                     : cm-1
 output force constant unit                     : eV/A**2
 output         volume unit                     : A**3
 output   IR intensity unit                     : (D/A)**2/amu
 output         dipole unit                     : D
 output         efield unit                     : eV/A/e
 output        entropy unit                     : J/mol/K
 output    efield chi2 unit                     : pm/V
  
 wavefunctions paging                           : none
 random number generator seed                   :   93418630
 data distribution                              : optimal for this architecture
 optimization strategy                          : balance speed and memory

 *********************** Exchange-Correlation Parameters ***********************
  
 using functional                               : Perdew Burke Ernzerhof
 relativistic treatment                         : Koelling-Harmon
 DFT+D: Semi-empirical dispersion correction    : off

 ************************* Pseudopotential Parameters **************************
  
 pseudopotential representation                 : reciprocal space
 <beta|phi> representation                      : reciprocal space
 spin-orbit coupling                            : off

 **************************** Basis Set Parameters *****************************
  
 plane wave basis set cut-off                   :   900.0000   eV
 size of standard grid                          :     2.0000
 size of   fine   gmax                          :    30.7390   1/A
 finite basis set correction                    : none

 **************************** Electronic Parameters ****************************
  
 number of  electrons                           :  72.00    
 net charge of system                           :  0.000    
 treating system as non-spin-polarized
 number of bands                                :         43

 ********************* Electronic Minimization Parameters **********************
  
 Method: Treating system as metallic with conventional treatment of electrons,
         and number of  SD  steps               :          1
         and number of  CG  steps               :          4
  
 total energy / atom convergence tol.           : 0.1000E-05   eV
 max force / atom convergence tol.              : ignored
 convergence tolerance window                   :          3   cycles
 max. number of SCF cycles                      :        100
 number of fixed-spin iterations                :         10
 smearing scheme                                : Gaussian
 smearing width                                 : 0.2000       eV
 Fermi energy convergence tolerance             : 0.2721E-13   eV
 periodic dipole correction                     : NONE

 *********************** Population Analysis Parameters ************************
  
 Population analysis with cutoff                :  3.000       A
 Population analysis output                     : summary and pdos components
 Partial DOS weights calculated

 ********************* Electronic Spectroscopy Parameters **********************
  
 electronic spectroscopy with theory level      : DFT       
 spectroscopy calculation                       : density of states
 max. number of iterations                      :         60
 max. steps per iteration                       :          5
 number of bands / k-point                      :         76
 band convergence tolerance                     : 0.1000E-05   eV
 write orbitals file                            : off

 *******************************************************************************
  

                           -------------------------------
                                      Unit Cell
                           -------------------------------
        Real Lattice(A)                      Reciprocal Lattice(1/A)
     5.2043900     0.0000000     0.0000000        1.207285639   0.000000000   0.000000000
     0.0000000     5.2043900     0.0000000        0.000000000   1.207285639   0.000000000
     0.0000000     0.0000000     6.1829150        0.000000000   0.000000000   1.016217319

                       Lattice parameters(A)       Cell Angles
                    a =      5.204390          alpha =   90.000000
                    b =      5.204390          beta  =   90.000000
                    c =      6.182915          gamma =   90.000000

                       Current cell volume =           167.468428       A**3
                                   density =             1.574538   AMU/A**3
                                           =             2.614581     g/cm^3

                           -------------------------------
                                     Cell Contents
                           -------------------------------
                         Total number of ions in cell =   16
                      Total number of species in cell =    3
                        Max number of any one species =    8

            xxxxxxxxxxxxxxxxxxxxxxxxxxxxxxxxxxxxxxxxxxxxxxxxxxxxxxxxxxxx
            x  Element    Atom        Fractional coordinates of atoms  x
            x            Number           u          v          w      x
            x----------------------------------------------------------x
            x  Li           1         0.313208   0.686792   0.750000   x 
            x  Li           2         0.686792   0.313208   0.250000   x 
            x  Li           3         0.186792   0.186792   0.500000   x 
            x  Li           4         0.813208   0.813208   0.000000   x 
            x  O            1         0.837919   0.206462   0.978271   x 
            x  O            2         0.162081   0.793538   0.478271   x 
            x  O            3         0.706462   0.662081   0.728271   x 
            x  O            4         0.293538   0.337919   0.228272   x 
            x  O            5         0.793538   0.162081   0.521729   x 
            x  O            6         0.206462   0.837919   0.021729   x 
            x  O            7         0.662081   0.706462   0.271729   x 
            x  O            8         0.337918   0.293538   0.771728   x 
            x  Al           1         0.675151   0.324849   0.750000   x 
            x  Al           2         0.324849   0.675151   0.250000   x 
            x  Al           3         0.824849   0.824848   0.500000   x 
            x  Al           4         0.175152   0.175151   0.000000   x 
            xxxxxxxxxxxxxxxxxxxxxxxxxxxxxxxxxxxxxxxxxxxxxxxxxxxxxxxxxxxx


                         No user defined ionic velocities

                           -------------------------------
                                   Details of Species
                           -------------------------------

                               Mass of species in AMU
                                    Li    6.9410000
                                    O   15.9994000
                                    Al   26.9815400

                          Electric Quadrupole Moment (Barn)
                                    Li   -0.0401000 Isotope   7
                                    O   -0.0255800 Isotope  17
                                    Al    0.1466000 Isotope  27

                          Files used for pseudopotentials:
                                    Li 1|1.0|14|16|18|10U:20(qc=7)
                                    O 2|1.1|17|20|23|20:21(qc=8)
                                    Al 3|2.2|2.2|1.4|4|5|5|30:31:32U2U2

                           -------------------------------
                              k-Points For BZ Sampling
                           -------------------------------
                       MP grid size for SCF calculation is 10 10  8
                            with an offset of   0.000  0.000  0.000
                       Number of kpoints used =           400

                           -------------------------------
                               Symmetry and Constraints
                           -------------------------------

                      Maximum deviation from symmetry =  0.00000         ANG

                      Number of symmetry operations   =           1
                      Number of ionic constraints     =           3
                      Point group of crystal =     1: C1, 1, 1
                      Space group of crystal =    92: P4_12_12, P 4abw 2nw

             Set iprint > 1 for details on symmetry rotations/translations

                         Centre of mass is constrained
             Set iprint > 2 for details of linear ionic constraints

                         Number of cell constraints= 0
                         Cell constraints are:  1 2 3 4 5 6

                         External pressure/stress (GPa)
                          0.00000   0.00000   0.00000
                                    0.00000   0.00000
                                              0.00000
 
+---------------- MEMORY AND SCRATCH DISK ESTIMATES PER PROCESS --------------+
|                                                     Memory          Disk    |
| Baseline code, static data and system overhead      623.0 MB         0.0 MB |
| BLAS internal memory storage                          0.0 MB         0.0 MB |
| Model and support data                              791.8 MB         0.0 MB |
| Electronic energy minimisation requirements         875.9 MB         0.0 MB |
| Force calculation requirements                       27.1 MB         0.0 MB |
|                                               ----------------------------- |
| Approx. total storage required per process         2290.7 MB         0.0 MB |
|                                                                             |
| Requirements will fluctuate during execution and may exceed these estimates |
+-----------------------------------------------------------------------------+
Calculating approximate eigenstates for fixed initial Hamiltonian
Cut-off for approx. calculation is   89.988 eV
Improving approx. states at cut-off of  450.000 eV
Resetting cut-off to  900.000 eV
Improving states further at cut-off of  900.000 eV
Calculating total energy with cut-off of  900.000 eV.
------------------------------------------------------------------------ <-- SCF
SCF loop      Energy           Fermi           Energy gain       Timer   <-- SCF
                               energy          per atom          (sec)   <-- SCF
------------------------------------------------------------------------ <-- SCF
Initial  -4.78626482E+003  6.83561948E+000                        86.34  <-- SCF
      1  -4.79040354E+003  6.83561948E+000   2.58670286E-001     145.77  <-- SCF
      2  -4.79050065E+003  6.83561948E+000   6.06966323E-003     206.62  <-- SCF
      3  -4.79055482E+003  6.83561948E+000   3.38524438E-003     263.94  <-- SCF
      4  -4.79057673E+003  6.83561948E+000   1.36933610E-003     320.08  <-- SCF
      5  -4.79058533E+003  6.83561948E+000   5.37622480E-004     375.36  <-- SCF
      6  -4.79058985E+003  6.83561948E+000   2.82409182E-004     430.80  <-- SCF
      7  -4.79059260E+003  6.83561948E+000   1.72132399E-004     486.24  <-- SCF
      8  -4.79059441E+003  6.83561948E+000   1.13117619E-004     541.48  <-- SCF
      9  -4.79059572E+003  6.83561948E+000   8.15163156E-005     596.92  <-- SCF
     10  -4.79059666E+003  6.83561948E+000   5.89127002E-005     651.02  <-- SCF
     11  -4.79059738E+003  6.83561948E+000   4.52365666E-005     705.12  <-- SCF
     12  -4.79059795E+003  6.83561948E+000   3.52825471E-005     759.11  <-- SCF
     13  -4.79059843E+003  6.83561948E+000   3.03958381E-005     813.42  <-- SCF
     14  -4.79059883E+003  6.83561948E+000   2.48659863E-005     867.16  <-- SCF
     15  -4.79059918E+003  6.83561948E+000   2.17450900E-005     921.55  <-- SCF
     16  -4.79059947E+003  6.83561948E+000   1.80430331E-005     975.45  <-- SCF
     17  -4.79059973E+003  6.83561948E+000   1.61627510E-005    1028.03  <-- SCF
     18  -4.79059994E+003  6.83561948E+000   1.33619899E-005    1082.99  <-- SCF
     19  -4.79060013E+003  6.83561948E+000   1.19803666E-005    1138.16  <-- SCF
     20  -4.79060030E+003  6.83561948E+000   1.01805168E-005    1189.44  <-- SCF
     21  -4.79060044E+003  6.83561948E+000   9.20204099E-006    1241.98  <-- SCF
     22  -4.79060057E+003  6.83561948E+000   7.83980200E-006    1292.49  <-- SCF
     23  -4.79060069E+003  6.83561948E+000   7.38061022E-006    1342.61  <-- SCF
     24  -4.79060079E+003  6.83561948E+000   6.49466203E-006    1392.73  <-- SCF
     25  -4.79060089E+003  6.83561948E+000   6.09232221E-006    1444.23  <-- SCF
     26  -4.79060098E+003  6.83561948E+000   5.48747340E-006    1495.26  <-- SCF
     27  -4.79060106E+003  6.83561948E+000   5.30133662E-006    1546.64  <-- SCF
     28  -4.79060114E+003  6.83561948E+000   4.75109035E-006    1598.48  <-- SCF
     29  -4.79060121E+003  6.83561948E+000   4.63417293E-006    1649.77  <-- SCF
     30  -4.79060128E+003  6.83561948E+000   4.20092001E-006    1700.18  <-- SCF
     31  -4.79060134E+003  6.83561948E+000   4.11667670E-006    1750.28  <-- SCF
     32  -4.79060140E+003  6.83561948E+000   3.69718484E-006    1800.61  <-- SCF
     33  -4.79060146E+003  6.83561948E+000   3.71128038E-006    1852.88  <-- SCF
     34  -4.79060151E+003  6.83561948E+000   3.30280339E-006    1906.38  <-- SCF
     35  -4.79060157E+003  6.83561948E+000   3.34929090E-006    1960.26  <-- SCF
     36  -4.79060162E+003  6.83561948E+000   2.95982934E-006    2013.48  <-- SCF
     37  -4.79060166E+003  6.83561948E+000   3.04109402E-006    2065.13  <-- SCF
     38  -4.79060171E+003  6.83561948E+000   2.70045553E-006    2116.15  <-- SCF
     39  -4.79060175E+003  6.83561948E+000   2.74651454E-006    2167.01  <-- SCF
     40  -4.79060179E+003  6.83561948E+000   2.47283902E-006    2216.61  <-- SCF
     41  -4.79060183E+003  6.83561948E+000   2.52545815E-006    2268.12  <-- SCF
     42  -4.79060187E+003  6.83561948E+000   2.23110358E-006    2320.39  <-- SCF
     43  -4.79060190E+003  6.83561948E+000   2.34399693E-006    2371.88  <-- SCF
     44  -4.79060194E+003  6.83561948E+000   2.02847374E-006    2422.63  <-- SCF
     45  -4.79060197E+003  6.83561948E+000   2.16425202E-006    2474.45  <-- SCF
     46  -4.79060200E+003  6.83561948E+000   1.86408384E-006    2525.09  <-- SCF
     47  -4.79060203E+003  6.83561948E+000   2.00211110E-006    2576.35  <-- SCF
     48  -4.79060206E+003  6.83561948E+000   1.73195937E-006    2627.19  <-- SCF
     49  -4.79060209E+003  6.83561948E+000   1.81700657E-006    2676.78  <-- SCF
     50  -4.79060212E+003  6.83561948E+000   1.58908210E-006    2727.68  <-- SCF
     51  -4.79060214E+003  6.83561948E+000   1.68356525E-006    2779.06  <-- SCF
     52  -4.79060217E+003  6.83561948E+000   1.49281527E-006    2831.17  <-- SCF
     53  -4.79060219E+003  6.83561948E+000   1.56230449E-006    2882.02  <-- SCF
     54  -4.79060221E+003  6.83561948E+000   1.41992036E-006    2932.80  <-- SCF
     55  -4.79060224E+003  6.83561948E+000   1.43215744E-006    2983.04  <-- SCF
     56  -4.79060226E+003  6.83561948E+000   1.31103136E-006    3032.95  <-- SCF
     57  -4.79060228E+003  6.83561948E+000   1.30013317E-006    3083.10  <-- SCF
     58  -4.79060230E+003  6.83561948E+000   1.25603327E-006    3133.86  <-- SCF
     59  -4.79060232E+003  6.83561948E+000   1.21367259E-006    3185.09  <-- SCF
     60  -4.79060234E+003  6.83561948E+000   1.16557743E-006    3234.94  <-- SCF
     61  -4.79060236E+003  6.83561948E+000   1.13373022E-006    3285.38  <-- SCF
     62  -4.79060237E+003  6.83561948E+000   1.04426670E-006    3335.91  <-- SCF
     63  -4.79060239E+003  6.83561948E+000   1.04099969E-006    3385.75  <-- SCF
     64  -4.79060240E+003  6.83561948E+000   9.87036405E-007    3435.58  <-- SCF
     65  -4.79060242E+003  6.83561948E+000   9.32310264E-007    3484.19  <-- SCF
     66  -4.79060243E+003  6.83561948E+000   9.35540925E-007    3531.70  <-- SCF
     67  -4.79060245E+003  6.83561948E+000   8.49797427E-007    3579.69  <-- SCF
     68  -4.79060246E+003  6.83561948E+000   8.47955588E-007    3627.49  <-- SCF
     69  -4.79060247E+003  6.83561948E+000   7.72773077E-007    3675.92  <-- SCF
     70  -4.79060249E+003  6.83561948E+000   8.19831208E-007    3723.15  <-- SCF
     71  -4.79060250E+003  6.83561948E+000   7.17978152E-007    3771.22  <-- SCF
     72  -4.79060251E+003  6.83561948E+000   7.22186963E-007    3819.48  <-- SCF
     73  -4.79060252E+003  6.83561948E+000   6.32167417E-007    3870.70  <-- SCF
     74  -4.79060253E+003  6.83561948E+000   7.02775302E-007    3918.57  <-- SCF
     75  -4.79060254E+003  6.83561948E+000   5.78813181E-007    3966.41  <-- SCF
     76  -4.79060255E+003  6.83561948E+000   6.23314181E-007    4014.51  <-- SCF
     77  -4.79060256E+003  6.83561948E+000   5.33311988E-007    4062.68  <-- SCF
     78  -4.79060257E+003  6.83561948E+000   6.21499025E-007    4110.98  <-- SCF
     79  -4.79060258E+003  6.83561948E+000   4.95678824E-007    4158.96  <-- SCF
     80  -4.79060259E+003  6.83561948E+000   5.79610260E-007    4207.28  <-- SCF
     81  -4.79060259E+003  6.83561948E+000   4.88864158E-007    4255.10  <-- SCF
     82  -4.79060260E+003  6.83561948E+000   5.10005515E-007    4302.39  <-- SCF
------------------------------------------------------------------------ <-- SCF
 
Final energy, E             =  -4790.602602450     eV
Final free energy (E-TS)    =  -4790.602602450     eV
(energies not corrected for finite basis set)
 
NB est. 0K energy (E-0.5TS)      =  -4790.602602450     eV
 

Writing analysis data to ml_dos.castep_bin

Writing model to ml_dos.check
 
+---------------- MEMORY AND SCRATCH DISK ESTIMATES PER PROCESS --------------+
|                                                     Memory          Disk    |
|                                               ----------------------------- |
| Approx. total storage required per process          708.4 MB         0.0 MB |
|                                                                             |
| Requirements will fluctuate during execution and may exceed these estimates |
+-----------------------------------------------------------------------------+
 
  =====================================================================
  +                                                                   +
  +                 Calculation of Spectral Properties                +
  +                                                                   +
  + Calculation re-parallelised over 16 processes.                    +
  + There are 400 k-points distributed across 16 k-point groups.      +
  + Data distributed by G-vector(1-way), k-point(16-way), band(1-way) +
  + Data distributed by k-point(16-way)                               +
  +                                                                   +
  =====================================================================

 Pseudo atomic calculation performed for Li 1s2 2s1

 Converged in 18 iterations to a total energy of -200.5098 eV

 Pseudo atomic calculation performed for O 2s2 2p4

 Converged in 24 iterations to a total energy of -432.3399 eV

 Pseudo atomic calculation performed for Al 3s2 3p1

 Converged in 15 iterations to a total energy of -107.1308 eV
  Starting k-point:        1 of       25 Time:      0.00 sec  |<-- SPEC

 Pseudo atomic calculation performed for Li 1s2 2s1

 Converged in 18 iterations to a total energy of -200.5098 eV

 Pseudo atomic calculation performed for O 2s2 2p4

 Converged in 24 iterations to a total energy of -432.3399 eV

 Pseudo atomic calculation performed for Al 3s2 3p1

 Converged in 15 iterations to a total energy of -107.1308 eV
  Starting k-point:        2 of       25 Time:     10.33 sec  |<-- SPEC

 Pseudo atomic calculation performed for Li 1s2 2s1

 Converged in 18 iterations to a total energy of -200.5098 eV

 Pseudo atomic calculation performed for O 2s2 2p4

 Converged in 24 iterations to a total energy of -432.3399 eV

 Pseudo atomic calculation performed for Al 3s2 3p1

 Converged in 15 iterations to a total energy of -107.1308 eV
  Starting k-point:        3 of       25 Time:     20.63 sec  |<-- SPEC

 Pseudo atomic calculation performed for Li 1s2 2s1

 Converged in 18 iterations to a total energy of -200.5098 eV

 Pseudo atomic calculation performed for O 2s2 2p4

 Converged in 24 iterations to a total energy of -432.3399 eV

 Pseudo atomic calculation performed for Al 3s2 3p1

 Converged in 15 iterations to a total energy of -107.1308 eV
  Starting k-point:        4 of       25 Time:     30.65 sec  |<-- SPEC

 Pseudo atomic calculation performed for Li 1s2 2s1

 Converged in 18 iterations to a total energy of -200.5098 eV

 Pseudo atomic calculation performed for O 2s2 2p4

 Converged in 24 iterations to a total energy of -432.3399 eV

 Pseudo atomic calculation performed for Al 3s2 3p1

 Converged in 15 iterations to a total energy of -107.1308 eV
  Starting k-point:        5 of       25 Time:     40.41 sec  |<-- SPEC

 Pseudo atomic calculation performed for Li 1s2 2s1

 Converged in 18 iterations to a total energy of -200.5098 eV

 Pseudo atomic calculation performed for O 2s2 2p4

 Converged in 24 iterations to a total energy of -432.3399 eV

 Pseudo atomic calculation performed for Al 3s2 3p1

 Converged in 15 iterations to a total energy of -107.1308 eV
  Starting k-point:        6 of       25 Time:     50.59 sec  |<-- SPEC

 Pseudo atomic calculation performed for Li 1s2 2s1

 Converged in 18 iterations to a total energy of -200.5098 eV

 Pseudo atomic calculation performed for O 2s2 2p4

 Converged in 24 iterations to a total energy of -432.3399 eV

 Pseudo atomic calculation performed for Al 3s2 3p1

 Converged in 15 iterations to a total energy of -107.1308 eV
  Starting k-point:        7 of       25 Time:     60.74 sec  |<-- SPEC

 Pseudo atomic calculation performed for Li 1s2 2s1

 Converged in 18 iterations to a total energy of -200.5098 eV

 Pseudo atomic calculation performed for O 2s2 2p4

 Converged in 24 iterations to a total energy of -432.3399 eV

 Pseudo atomic calculation performed for Al 3s2 3p1

 Converged in 15 iterations to a total energy of -107.1308 eV
  Starting k-point:        8 of       25 Time:     70.83 sec  |<-- SPEC

 Pseudo atomic calculation performed for Li 1s2 2s1

 Converged in 18 iterations to a total energy of -200.5098 eV

 Pseudo atomic calculation performed for O 2s2 2p4

 Converged in 24 iterations to a total energy of -432.3399 eV

 Pseudo atomic calculation performed for Al 3s2 3p1

 Converged in 15 iterations to a total energy of -107.1308 eV
  Starting k-point:        9 of       25 Time:     80.66 sec  |<-- SPEC

 Pseudo atomic calculation performed for Li 1s2 2s1

 Converged in 18 iterations to a total energy of -200.5098 eV

 Pseudo atomic calculation performed for O 2s2 2p4

 Converged in 24 iterations to a total energy of -432.3399 eV

 Pseudo atomic calculation performed for Al 3s2 3p1

 Converged in 15 iterations to a total energy of -107.1308 eV
  Starting k-point:       10 of       25 Time:     90.73 sec  |<-- SPEC

 Pseudo atomic calculation performed for Li 1s2 2s1

 Converged in 18 iterations to a total energy of -200.5098 eV

 Pseudo atomic calculation performed for O 2s2 2p4

 Converged in 24 iterations to a total energy of -432.3399 eV

 Pseudo atomic calculation performed for Al 3s2 3p1

 Converged in 15 iterations to a total energy of -107.1308 eV
  Starting k-point:       11 of       25 Time:    100.30 sec  |<-- SPEC

 Pseudo atomic calculation performed for Li 1s2 2s1

 Converged in 18 iterations to a total energy of -200.5098 eV

 Pseudo atomic calculation performed for O 2s2 2p4

 Converged in 24 iterations to a total energy of -432.3399 eV

 Pseudo atomic calculation performed for Al 3s2 3p1

 Converged in 15 iterations to a total energy of -107.1308 eV
  Starting k-point:       12 of       25 Time:    110.58 sec  |<-- SPEC

 Pseudo atomic calculation performed for Li 1s2 2s1

 Converged in 18 iterations to a total energy of -200.5098 eV

 Pseudo atomic calculation performed for O 2s2 2p4

 Converged in 24 iterations to a total energy of -432.3399 eV

 Pseudo atomic calculation performed for Al 3s2 3p1

 Converged in 15 iterations to a total energy of -107.1308 eV
  Starting k-point:       13 of       25 Time:    120.68 sec  |<-- SPEC

 Pseudo atomic calculation performed for Li 1s2 2s1

 Converged in 18 iterations to a total energy of -200.5098 eV

 Pseudo atomic calculation performed for O 2s2 2p4

 Converged in 24 iterations to a total energy of -432.3399 eV

 Pseudo atomic calculation performed for Al 3s2 3p1

 Converged in 15 iterations to a total energy of -107.1308 eV
  Starting k-point:       14 of       25 Time:    130.68 sec  |<-- SPEC

 Pseudo atomic calculation performed for Li 1s2 2s1

 Converged in 18 iterations to a total energy of -200.5098 eV

 Pseudo atomic calculation performed for O 2s2 2p4

 Converged in 24 iterations to a total energy of -432.3399 eV

 Pseudo atomic calculation performed for Al 3s2 3p1

 Converged in 15 iterations to a total energy of -107.1308 eV
  Starting k-point:       15 of       25 Time:    140.77 sec  |<-- SPEC

 Pseudo atomic calculation performed for Li 1s2 2s1

 Converged in 18 iterations to a total energy of -200.5098 eV

 Pseudo atomic calculation performed for O 2s2 2p4

 Converged in 24 iterations to a total energy of -432.3399 eV

 Pseudo atomic calculation performed for Al 3s2 3p1

 Converged in 15 iterations to a total energy of -107.1308 eV
  Starting k-point:       16 of       25 Time:    150.89 sec  |<-- SPEC

 Pseudo atomic calculation performed for Li 1s2 2s1

 Converged in 18 iterations to a total energy of -200.5098 eV

 Pseudo atomic calculation performed for O 2s2 2p4

 Converged in 24 iterations to a total energy of -432.3399 eV

 Pseudo atomic calculation performed for Al 3s2 3p1

 Converged in 15 iterations to a total energy of -107.1308 eV
  Starting k-point:       17 of       25 Time:    161.25 sec  |<-- SPEC

 Pseudo atomic calculation performed for Li 1s2 2s1

 Converged in 18 iterations to a total energy of -200.5098 eV

 Pseudo atomic calculation performed for O 2s2 2p4

 Converged in 24 iterations to a total energy of -432.3399 eV

 Pseudo atomic calculation performed for Al 3s2 3p1

 Converged in 15 iterations to a total energy of -107.1308 eV
  Starting k-point:       18 of       25 Time:    171.52 sec  |<-- SPEC

 Pseudo atomic calculation performed for Li 1s2 2s1

 Converged in 18 iterations to a total energy of -200.5098 eV

 Pseudo atomic calculation performed for O 2s2 2p4

 Converged in 24 iterations to a total energy of -432.3399 eV

 Pseudo atomic calculation performed for Al 3s2 3p1

 Converged in 15 iterations to a total energy of -107.1308 eV
  Starting k-point:       19 of       25 Time:    181.73 sec  |<-- SPEC

 Pseudo atomic calculation performed for Li 1s2 2s1

 Converged in 18 iterations to a total energy of -200.5098 eV

 Pseudo atomic calculation performed for O 2s2 2p4

 Converged in 24 iterations to a total energy of -432.3399 eV

 Pseudo atomic calculation performed for Al 3s2 3p1

 Converged in 15 iterations to a total energy of -107.1308 eV
  Starting k-point:       20 of       25 Time:    191.88 sec  |<-- SPEC

 Pseudo atomic calculation performed for Li 1s2 2s1

 Converged in 18 iterations to a total energy of -200.5098 eV

 Pseudo atomic calculation performed for O 2s2 2p4

 Converged in 24 iterations to a total energy of -432.3399 eV

 Pseudo atomic calculation performed for Al 3s2 3p1

 Converged in 15 iterations to a total energy of -107.1308 eV
  Starting k-point:       21 of       25 Time:    202.17 sec  |<-- SPEC

 Pseudo atomic calculation performed for Li 1s2 2s1

 Converged in 18 iterations to a total energy of -200.5098 eV

 Pseudo atomic calculation performed for O 2s2 2p4

 Converged in 24 iterations to a total energy of -432.3399 eV

 Pseudo atomic calculation performed for Al 3s2 3p1

 Converged in 15 iterations to a total energy of -107.1308 eV
  Starting k-point:       22 of       25 Time:    212.26 sec  |<-- SPEC

 Pseudo atomic calculation performed for Li 1s2 2s1

 Converged in 18 iterations to a total energy of -200.5098 eV

 Pseudo atomic calculation performed for O 2s2 2p4

 Converged in 24 iterations to a total energy of -432.3399 eV

 Pseudo atomic calculation performed for Al 3s2 3p1

 Converged in 15 iterations to a total energy of -107.1308 eV
  Starting k-point:       23 of       25 Time:    221.91 sec  |<-- SPEC

 Pseudo atomic calculation performed for Li 1s2 2s1

 Converged in 18 iterations to a total energy of -200.5098 eV

 Pseudo atomic calculation performed for O 2s2 2p4

 Converged in 24 iterations to a total energy of -432.3399 eV

 Pseudo atomic calculation performed for Al 3s2 3p1

 Converged in 15 iterations to a total energy of -107.1308 eV
  Starting k-point:       24 of       25 Time:    231.99 sec  |<-- SPEC

 Pseudo atomic calculation performed for Li 1s2 2s1

 Converged in 18 iterations to a total energy of -200.5098 eV

 Pseudo atomic calculation performed for O 2s2 2p4

 Converged in 24 iterations to a total energy of -432.3399 eV

 Pseudo atomic calculation performed for Al 3s2 3p1

 Converged in 15 iterations to a total energy of -107.1308 eV
  Starting k-point:       25 of       25 Time:    241.77 sec  |<-- SPEC

 Pseudo atomic calculation performed for Li 1s2 2s1

 Converged in 18 iterations to a total energy of -200.5098 eV

 Pseudo atomic calculation performed for O 2s2 2p4

 Converged in 24 iterations to a total energy of -432.3399 eV

 Pseudo atomic calculation performed for Al 3s2 3p1

 Converged in 15 iterations to a total energy of -107.1308 eV
  Check-pointing spectral run                                 |<-- SPEC
  Total time to compute matrix elements            251.47 sec |<-- SPEC
  
  + Calculation re-parallelised over 16 processes.                    +
  + Data distributed by k-point(16-way)                               +

 ************************** Forces **************************
 *                                                          *
 *               Cartesian components (eV/A)                *
 * -------------------------------------------------------- *
 *                         x            y            z      *
 *                                                          *
 * Li              1     -0.10357      0.08392      0.01261 *
 * Li              2      0.07132     -0.08575      0.01507 *
 * Li              3      0.08200      0.08903      0.00705 *
 * Li              4     -0.10208     -0.08802      0.00334 *
 * O               1      1.46515      0.12498     -2.02811 *
 * O               2     -1.44144     -0.03146     -2.10425 *
 * O               3      0.06749     -1.71413     -2.19392 *
 * O               4     -0.01331      1.68626     -2.29573 *
 * O               5     -0.13182     -1.54062      2.23313 *
 * O               6      0.12690      1.48732      1.95197 *
 * O               7     -1.64641     -0.05161      2.15906 *
 * O               8      1.65363      0.02088      2.18271 *
 * Al              1      0.05896     -0.04410     -0.00746 *
 * Al              2     -0.07103      0.06822      0.01909 *
 * Al              3     -0.05306     -0.03824      0.03145 *
 * Al              4      0.03726      0.03333      0.01399 *
 *                                                          *
 ************************************************************

 Pseudo atomic calculation performed for Li 1s2 2s1

 Converged in 18 iterations to a total energy of -200.5098 eV

 Pseudo atomic calculation performed for O 2s2 2p4

 Converged in 24 iterations to a total energy of -432.3399 eV

 Pseudo atomic calculation performed for Al 3s2 3p1

 Converged in 15 iterations to a total energy of -107.1308 eV
Charge spilling parameter for spin component 1 = 0.44%

            Orbital Populations       
     Ion    Atom   Orbital             Charge
  -------------------------------------------
     Li     1      S                    2.004
     Li     1      S                    0.033
     Li     1      Px                   0.072
     Li     1      Py                   0.072
     Li     1      Pz                   0.105
     Li     2      S                    2.004
     Li     2      S                    0.033
     Li     2      Px                   0.072
     Li     2      Py                   0.072
     Li     2      Pz                   0.105
     Li     3      S                    2.004
     Li     3      S                    0.033
     Li     3      Px                   0.072
     Li     3      Py                   0.072
     Li     3      Pz                   0.105
     Li     4      S                    2.004
     Li     4      S                    0.033
     Li     4      Px                   0.072
     Li     4      Py                   0.072
     Li     4      Pz                   0.105
      O     1      S                    1.868
      O     1      Px                   1.749
      O     1      Py                   1.806
      O     1      Pz                   1.779
      O     2      S                    1.868
      O     2      Px                   1.748
      O     2      Py                   1.806
      O     2      Pz                   1.778
      O     3      S                    1.868
      O     3      Px                   1.806
      O     3      Py                   1.749
      O     3      Pz                   1.778
      O     4      S                    1.868
      O     4      Px                   1.806
      O     4      Py                   1.749
      O     4      Pz                   1.778
      O     5      S                    1.868
      O     5      Px                   1.807
      O     5      Py                   1.750
      O     5      Pz                   1.779
      O     6      S                    1.868
      O     6      Px                   1.806
      O     6      Py                   1.749
      O     6      Pz                   1.778
      O     7      S                    1.868
      O     7      Px                   1.749
      O     7      Py                   1.806
      O     7      Pz                   1.778
      O     8      S                    1.868
      O     8      Px                   1.748
      O     8      Py                   1.806
      O     8      Pz                   1.778
     Al     1      S                    0.470
     Al     1      Px                   0.281
     Al     1      Py                   0.281
     Al     1      Pz                   0.280
     Al     2      S                    0.470
     Al     2      Px                   0.281
     Al     2      Py                   0.281
     Al     2      Pz                   0.281
     Al     3      S                    0.470
     Al     3      Px                   0.281
     Al     3      Py                   0.281
     Al     3      Pz                   0.281
     Al     4      S                    0.470
     Al     4      Px                   0.281
     Al     4      Py                   0.281
     Al     4      Pz                   0.281
  -------------------------------------------
                           Total:      72.000
  -------------------------------------------

     Atomic Populations (Mulliken)
     -----------------------------
Species          Ion     s       p       d       f      Total   Charge (e)
==========================================================================
  Li              1     2.037   0.249   0.000   0.000   2.286     0.714
  Li              2     2.036   0.249   0.000   0.000   2.285     0.715
  Li              3     2.036   0.248   0.000   0.000   2.285     0.715
  Li              4     2.036   0.248   0.000   0.000   2.285     0.715
  O               1     1.868   5.334   0.000   0.000   7.202    -1.202
  O               2     1.868   5.332   0.000   0.000   7.200    -1.200
  O               3     1.868   5.332   0.000   0.000   7.200    -1.200
  O               4     1.868   5.332   0.000   0.000   7.200    -1.200
  O               5     1.868   5.335   0.000   0.000   7.203    -1.203
  O               6     1.868   5.333   0.000   0.000   7.201    -1.201
  O               7     1.868   5.333   0.000   0.000   7.201    -1.201
  O               8     1.868   5.332   0.000   0.000   7.200    -1.200
  Al              1     0.470   0.843   0.000   0.000   1.312     1.688
  Al              2     0.470   0.844   0.000   0.000   1.314     1.686
  Al              3     0.470   0.843   0.000   0.000   1.313     1.687
  Al              4     0.470   0.843   0.000   0.000   1.313     1.687
==========================================================================

                 Bond                   Population      Length (A)
======================================================================
               O 3 -- Al 3                   0.48        1.75761
               O 7 -- Al 3                   0.48        1.75761
               O 8 -- Al 4                   0.48        1.75761
               O 6 -- Al 2                   0.48        1.75761
               O 5 -- Al 1                   0.48        1.75761
               O 2 -- Al 2                   0.48        1.75761
               O 1 -- Al 1                   0.48        1.75761
               O 4 -- Al 4                   0.48        1.75762
               O 6 -- Al 4                   0.44        1.76775
               O 2 -- Al 3                   0.44        1.76775
               O 4 -- Al 2                   0.44        1.76775
               O 7 -- Al 2                   0.44        1.76775
               O 3 -- Al 1                   0.44        1.76775
               O 8 -- Al 1                   0.44        1.76775
               O 5 -- Al 3                   0.44        1.76775
               O 1 -- Al 4                   0.44        1.76775
              Li 3 -- O 8                    0.28        1.93646
              Li 3 -- O 4                    0.28        1.93646
              Li 2 -- O 5                    0.28        1.93647
              Li 2 -- O 1                    0.28        1.93647
              Li 1 -- O 6                    0.28        1.93647
              Li 1 -- O 2                    0.29        1.93647
              Li 4 -- O 7                    0.28        1.93647
              Li 4 -- O 3                    0.28        1.93647
              Li 1 -- O 8                    0.06        2.05508
              Li 2 -- O 4                    0.06        2.05508
              Li 4 -- O 6                    0.06        2.05508
              Li 4 -- O 1                    0.06        2.05508
              Li 3 -- O 5                    0.06        2.05508
              Li 3 -- O 2                    0.06        2.05508
              Li 1 -- O 3                    0.06        2.05508
              Li 2 -- O 7                    0.06        2.05508
              Li 2 -- Al 2                  -0.23        2.66394
              Li 1 -- Al 1                  -0.23        2.66394
              Li 4 -- Al 4                  -0.23        2.66395
              Li 3 -- Al 3                  -0.23        2.66395
               O 4 -- O 7                   -0.07        2.72580
               O 2 -- O 5                   -0.07        2.72580
               O 1 -- O 6                   -0.07        2.72580
               O 3 -- O 8                   -0.07        2.72580
               O 3 -- O 7                   -0.05        2.84160
               O 2 -- O 6                   -0.05        2.84160
               O 1 -- O 5                   -0.05        2.84160
               O 4 -- O 8                   -0.05        2.84161
               O 2 -- O 4                   -0.05        2.91204
               O 6 -- O 7                   -0.05        2.91205
               O 2 -- O 3                   -0.05        2.91205
               O 5 -- O 7                   -0.05        2.91205
               O 1 -- O 3                   -0.05        2.91205
               O 5 -- O 8                   -0.05        2.91205
               O 6 -- O 8                   -0.05        2.91205
               O 1 -- O 4                   -0.05        2.91205
               O 1 -- O 8                   -0.07        2.93387
               O 3 -- O 5                   -0.07        2.93387
               O 2 -- O 7                   -0.07        2.93387
               O 4 -- O 6                   -0.07        2.93387
======================================================================


Writing analysis data to ml_dos.castep_bin

Writing model to ml_dos.check
 
 A BibTeX formatted list of references used in this run has been written to 
 ml_dos.bib
 
Initialisation time =      6.35 s
Calculation time    =   4705.36 s
Finalisation time   =      5.31 s
Total time          =   4717.01 s
Peak Memory Use     = 2706160 kB
 
Overall parallel efficiency rating: Satisfactory (68%)
 
Data was distributed by:-
k-point (16-way); efficiency rating: Satisfactory (68%)
