 +-------------------------------------------------+
 |                                                 |
 |      CCC   AA    SSS  TTTTT  EEEEE  PPPP        |
 |     C     A  A  S       T    E      P   P       |
 |     C     AAAA   SS     T    EEE    PPPP        |
 |     C     A  A     S    T    E      P           |
 |      CCC  A  A  SSS     T    EEEEE  P           |
 |                                                 |
 +-------------------------------------------------+
 |                                                 |
 | Welcome to Academic Release CASTEP version 25.12|
 | Ab Initio Total Energy Program                  |
 |                                                 |
 | Authors:                                        |
 | M. Segall, M. Probert, C. Pickard, P. Hasnip,   |
 | S. Clark, K. Refson, J. R. Yates,               |
 | A. Bartok-Partay, M. Payne                      |
 |                                                 |
 | Contributors:                                   |
 | P. Lindan, P. Haynes, J. White, V. Milman,      |
 | N. Govind, M. Gibson, P. Tulip, V. Cocula,      |
 | B. Montanari, D. Quigley, M. Glover,            |
 | L. Bernasconi, A. Perlov, M. Plummer,           |
 | E. McNellis, J. Meyer, J. Gale, D. Jochym       |
 | J. Aarons, B. Walker, R. Gillen, D. Jones       |
 | T. Green, I. J. Bush, C. J. Armstrong,          |
 | E. J. Higgins, E. L. Brown, M. S. McFly,        |
 | J. Wilkins, B-C. Shih, P. J. P. Byrne,          |
 | R. J. Maurer, J. C. Womack, J. Dziedzic,        |
 | L. LeBlanc, T. K. Stenczel, J. Kermode,         |
 | S. Sturniolo, B. Shi, B. Durham, M. Evans,      |
 | M. J. Smith, A. Tamerus, Z. Hawkhead,           |
 | V. Ravindran, T. Hollins, S. A. Joyce,          |
 | R. T. Strong, A. M. Reilly, S. J. Donaldson,    |
 | J. C. A. Prentice                               |
 |                                                 |
 | Copyright (c) 2000 - 2024                       |
 |                                                 |
 |     Distributed under license from Cambridge    |
 |     Enterprise for academic use only.           |
 |                                                 |
 | Please cite                                     |
 |                                                 |
 |     "First principles methods using CASTEP"     |
 |                                                 |
 |         Zeitschrift fuer Kristallographie       |
 |           220(5-6) pp. 567-570 (2005)           |
 |                                                 |
 | S. J. Clark, M. D. Segall, C. J. Pickard,       |
 | P. J. Hasnip, M. J. Probert, K. Refson,         |
 | M. C. Payne                                     |
 |                                                 |
 |       in all publications arising from          |
 |              your use of CASTEP                 |
 |                                                 |
 +-------------------------------------------------+
 |                                                 |
 |              http://www.castep.org              |
 |                                                 |
 +-------------------------------------------------+



 Compiled for linux_x86_64_gfortran10 on Sun, 13 Jul 2025 14:49:40 -0400
 from code version git version unavailable
 Compiler: GNU Fortran 13.3.0; Optimisation: fast
 Comms   : Open MPI v5.0.3
 MATHLIBS: flexiblas (IMKL) (LAPACK version 3.12.0)
 FFT Lib : fftw3 version fftw-3.3.10-sse2-avx-avx2-avx2_128
 Fundamental constants values: CODATA 2018

 Run started: Thu, 30 Oct 2025 03:13:00 -0400

 Atomic calculation performed for Li: 1s2 2s1

 Converged in 47 iterations to an ae energy of -202.784 eV

   ============================================================                
   | Pseudopotential Report - Date of generation 30-10-2025   |                
   ------------------------------------------------------------                
   | Element: Li Ionic charge:  3.00 Level of theory: PBE     |                
   | Atomic Solver: Koelling-Harmon                           |                
   |                                                          |                
   |               Reference Electronic Structure             |                
   |         Orbital         Occupation         Energy        |                
   |            1s              2.000           -1.906        |                
   |            2s              1.000           -0.106        |                
   |                                                          |                
   |                 Pseudopotential Definition               |                
   |        Beta     l      e      Rc     scheme   norm       |                
   |          1      0   -1.906   1.001     qc      0         |                
   |          2      0   -0.106   1.001     qc      0         |                
   |          3      0    0.250   1.001     qc      0         |                
   |         loc     1    0.000   1.001     pn      0         |                
   |                                                          |                
   | Augmentation charge Rinner = 0.699                       |                
   | No partial core correction                               |                
   ------------------------------------------------------------                
   | "1|1.0|14|16|18|10U:20(qc=7)"                            |                
   ------------------------------------------------------------                
   |      Author: Chris J. Pickard, Cambridge University      |                
   ============================================================                

 Atomic calculation performed for O: 1s2 2s2 2p4

 Converged in 61 iterations to an ae energy of -2040.902 eV

   ============================================================                
   | Pseudopotential Report - Date of generation 30-10-2025   |                
   ------------------------------------------------------------                
   | Element: O Ionic charge:  6.00 Level of theory: PBE      |                
   | Atomic Solver: Koelling-Harmon                           |                
   |                                                          |                
   |               Reference Electronic Structure             |                
   |         Orbital         Occupation         Energy        |                
   |            2s              2.000           -0.881        |                
   |            2p              4.000           -0.332        |                
   |                                                          |                
   |                 Pseudopotential Definition               |                
   |        Beta     l      e      Rc     scheme   norm       |                
   |          1      0   -0.881   1.100     qc      0         |                
   |          2      0    0.250   1.100     qc      0         |                
   |          3      1   -0.332   1.100     qc      0         |                
   |          4      1    0.250   1.100     qc      0         |                
   |         loc     2    0.000   1.100     pn      0         |                
   |                                                          |                
   | Augmentation charge Rinner = 0.769                       |                
   | Partial core correction Rc = 0.769                       |                
   ------------------------------------------------------------                
   | "2|1.1|17|20|23|20:21(qc=8)"                             |                
   ------------------------------------------------------------                
   |      Author: Chris J. Pickard, Cambridge University      |                
   ============================================================                

 Atomic calculation performed for P: 1s2 2s2 2p6 3s2 3p3

 Converged in 56 iterations to an ae energy of -9303.626 eV

   ============================================================                
   | Pseudopotential Report - Date of generation 30-10-2025   |                
   ------------------------------------------------------------                
   | Element: P Ionic charge:  5.00 Level of theory: PBE      |                
   | Atomic Solver: Koelling-Harmon                           |                
   |                                                          |                
   |               Reference Electronic Structure             |                
   |         Orbital         Occupation         Energy        |                
   |            3s              2.000           -0.513        |                
   |            3p              3.000           -0.202        |                
   |                                                          |                
   |                 Pseudopotential Definition               |                
   |        Beta     l      e      Rc     scheme   norm       |                
   |          1      0   -0.513   1.807     qc      0         |                
   |          2      0    0.250   1.807     qc      0         |                
   |          3      1   -0.202   1.807     qc      0         |                
   |          4      1    0.250   1.807     qc      0         |                
   |          5      2    0.000   1.807     qc      0         |                
   |          6      2    0.250   1.807     qc      0         |                
   |         loc     3    0.000   1.807     pn      0         |                
   |                                                          |                
   | Augmentation charge Rinner = 1.263                       |                
   | Partial core correction Rc = 1.263                       |                
   ------------------------------------------------------------                
   | "3|1.8|4|4|5|30:31:32"                                   |                
   ------------------------------------------------------------                
   |      Author: Chris J. Pickard, Cambridge University      |                
   ============================================================                

 Atomic calculation performed for Zr: 1s2 2s2 2p6 3s2 3p6 3d10 4s2 4p6 4d2 5s2

 Converged in 73 iterations to an ae energy of -97920.943 eV

 Warning: otfg_descreen_psp: negative charge density encountered
   ============================================================                
   | Pseudopotential Report - Date of generation 30-10-2025   |                
   ------------------------------------------------------------                
   | Element: Zr Ionic charge: 12.00 Level of theory: PBE     |                
   | Atomic Solver: Koelling-Harmon                           |                
   |                                                          |                
   |               Reference Electronic Structure             |                
   |         Orbital         Occupation         Energy        |                
   |            4s              2.000           -2.003        |                
   |            4p              6.000           -1.193        |                
   |            5s              2.000           -0.163        |                
   |            4d              2.000           -0.132        |                
   |                                                          |                
   |                 Pseudopotential Definition               |                
   |        Beta     l      e      Rc     scheme   norm       |                
   |          1      0   -2.003   2.105     qc      0         |                
   |          2      0   -0.163   2.105     qc      0         |                
   |          3      0    0.250   2.105     qc      0         |                
   |          4      1   -1.193   2.105     qc      0         |                
   |          5      1    0.250   2.105     qc      0         |                
   |          6      2   -0.132   2.105     qc      0         |                
   |          7      2    0.250   2.105     qc      0         |                
   |         loc     3    0.000   2.105     pn      0         |                
   |                                                          |                
   | Augmentation charge Rinner = 1.471                       |                
   | Partial core correction Rc = 1.471                       |                
   ------------------------------------------------------------                
   | "3|2.1|7|8|9|40U:50:41:42"                               |                
   ------------------------------------------------------------                
   |      Author: Chris J. Pickard, Cambridge University      |                
   ============================================================                

 Pseudo atomic calculation performed for Li 1s2 2s1

 Converged in 18 iterations to a total energy of -200.5098 eV

 Pseudo atomic calculation performed for O 2s2 2p4

 Converged in 24 iterations to a total energy of -432.3399 eV

 Pseudo atomic calculation performed for P 3s2 3p3

 Converged in 18 iterations to a total energy of -214.2237 eV

 Pseudo atomic calculation performed for Zr 4s2 4p6 4d2 5s2

 Converged in 25 iterations to a total energy of -1285.8617 eV
 Calculation parallelised over 18 processes.
 Data is distributed by G-vector(3-way) and k-point(6-way)

 ************************************ Title ************************************
 

 ***************************** General Parameters ******************************
  
 output verbosity                               : normal  (1)
 write checkpoint data to                       : ml_dos.check
 type of calculation                            : Electronic Spectroscopy
 stress calculation                             : off
 density difference calculation                 : off
 electron localisation func (ELF) calculation   : off
 Hirshfeld analysis                             : off
 polarisation (Berry phase) analysis            : off
 molecular orbital projected DOS                : off
 deltaSCF calculation                           : off
 unlimited duration calculation
 timing information                             : on
 memory usage estimate                          : on
 write extra output files                       : on
 write final potential to formatted file        : off
 write final density to formatted file          : off
 write BibTeX reference list                    : on
 write OTFG pseudopotential files               : on
 write electrostatic potential file             : on
 write bands file                               : on
 checkpoint writing                             : both castep_bin and check files
  
 output         length unit                     : A
 output           mass unit                     : amu
 output           time unit                     : ps
 output         charge unit                     : e
 output           spin unit                     : hbar/2
 output         energy unit                     : eV
 output          force unit                     : eV/A
 output       velocity unit                     : A/ps
 output       pressure unit                     : GPa
 output     inv_length unit                     : 1/A
 output      frequency unit                     : cm-1
 output force constant unit                     : eV/A**2
 output         volume unit                     : A**3
 output   IR intensity unit                     : (D/A)**2/amu
 output         dipole unit                     : D
 output         efield unit                     : eV/A/e
 output        entropy unit                     : J/mol/K
 output    efield chi2 unit                     : pm/V
  
 wavefunctions paging                           : none
 random number generator seed                   :   31300934
 data distribution                              : optimal for this architecture
 optimization strategy                          : balance speed and memory

 *********************** Exchange-Correlation Parameters ***********************
  
 using functional                               : Perdew Burke Ernzerhof
 relativistic treatment                         : Koelling-Harmon
 DFT+D: Semi-empirical dispersion correction    : off

 ************************* Pseudopotential Parameters **************************
  
 pseudopotential representation                 : reciprocal space
 <beta|phi> representation                      : reciprocal space
 spin-orbit coupling                            : off

 **************************** Basis Set Parameters *****************************
  
 plane wave basis set cut-off                   :   900.0000   eV
 size of standard grid                          :     2.0000
 size of   fine   gmax                          :    30.7390   1/A
 finite basis set correction                    : none

 **************************** Electronic Parameters ****************************
  
 number of  electrons                           :  456.0    
 net charge of system                           :  0.000    
 treating system as non-spin-polarized
 number of bands                                :        274

 ********************* Electronic Minimization Parameters **********************
  
 Method: Treating system as metallic with density mixing treatment of electrons,
         and number of  SD  steps               :          1
         and number of  CG  steps               :          4
  
 total energy / atom convergence tol.           : 0.1000E-05   eV
 eigen-energy convergence tolerance             : 0.3158E-06   eV
 max force / atom convergence tol.              : ignored
 convergence tolerance window                   :          3   cycles
 max. number of SCF cycles                      :        100
 number of fixed-spin iterations                :         10
 smearing scheme                                : Gaussian
 smearing width                                 : 0.2000       eV
 Fermi energy convergence tolerance             : 0.2721E-13   eV
 periodic dipole correction                     : NONE

 ************************** Density Mixing Parameters **************************
  
 density-mixing scheme                          : Pulay
 max. length of mixing history                  :         20
 charge density mixing amplitude                : 0.2000    
 cut-off energy for mixing                      :  900.0       eV

 *********************** Population Analysis Parameters ************************
  
 Population analysis with cutoff                :  3.000       A
 Population analysis output                     : summary and pdos components
 Partial DOS weights calculated

 ********************* Electronic Spectroscopy Parameters **********************
  
 electronic spectroscopy with theory level      : DFT       
 spectroscopy calculation                       : density of states
 max. number of iterations                      :         60
 max. steps per iteration                       :          5
 number of bands / k-point                      :        357
 band convergence tolerance                     : 0.1000E-05   eV
 write orbitals file                            : off

 *******************************************************************************
  

                           -------------------------------
                                      Unit Cell
                           -------------------------------
        Real Lattice(A)                      Reciprocal Lattice(1/A)
     8.9673000     0.0000000     0.0000000        0.700677496  -0.000001231   0.009802337
     0.0000160     9.1050320     0.0000000        0.000000000   0.690078333   0.000006307
    -0.1760390    -0.0001150    12.5833830        0.000000000   0.000000000   0.499324014

                       Lattice parameters(A)       Cell Angles
                    a =      8.967300          alpha =   90.000525
                    b =      9.105032          beta  =   90.801504
                    c =     12.584614          gamma =   89.999899

                       Current cell volume =          1027.402436       A**3
                                   density =             1.846611   AMU/A**3
                                           =             3.066369     g/cm^3

                           -------------------------------
                                     Cell Contents
                           -------------------------------
                         Total number of ions in cell =   72
                      Total number of species in cell =    4
                        Max number of any one species =   48

            xxxxxxxxxxxxxxxxxxxxxxxxxxxxxxxxxxxxxxxxxxxxxxxxxxxxxxxxxxxx
            x  Element    Atom        Fractional coordinates of atoms  x
            x            Number           u          v          w      x
            x----------------------------------------------------------x
            x  Li           1         0.212359   0.725033   0.178277   x 
            x  Li           2         0.712391   0.774133   0.678329   x 
            x  Li           3         0.787651   0.274431   0.821420   x 
            x  Li           4         0.287851   0.225321   0.321388   x 
            x  O            1         0.849369   0.920676   0.032067   x 
            x  O            2         0.349755   0.578208   0.532523   x 
            x  O            3         0.150141   0.078897   0.967641   x 
            x  O            4         0.651074   0.421786   0.467401   x 
            x  O            5         0.820677   0.751751   0.821620   x 
            x  O            6         0.320583   0.748028   0.322067   x 
            x  O            7         0.179592   0.248224   0.178001   x 
            x  O            8         0.679500   0.251743   0.678030   x 
            x  O            9         0.554077   0.858939   0.942857   x 
            x  O           10         0.054365   0.641063   0.443098   x 
            x  O           11         0.446156   0.140654   0.057391   x 
            x  O           12         0.946963   0.359928   0.557696   x 
            x  O           13         0.925477   0.098404   0.845436   x 
            x  O           14         0.425694   0.401378   0.345950   x 
            x  O           15         0.074252   0.900985   0.154167   x 
            x  O           16         0.574589   0.598191   0.654777   x 
            x  O           17         0.674511   0.980508   0.726258   x 
            x  O           18         0.174247   0.519294   0.226616   x 
            x  O           19         0.325691   0.019118   0.273048   x 
            x  O           20         0.825846   0.480748   0.773421   x 
            x  O           21         0.649425   0.163330   0.919533   x 
            x  O           22         0.149816   0.336766   0.419973   x 
            x  O           23         0.350422   0.836377   0.080218   x 
            x  O           24         0.849969   0.663756   0.580126   x 
            x  O           25         0.825987   0.556448   0.964693   x 
            x  O           26         0.326386   0.944333   0.464530   x 
            x  O           27         0.174168   0.444541   0.035516   x 
            x  O           28         0.673984   0.056399   0.535197   x 
            x  O           29         0.869744   0.715337   0.166989   x 
            x  O           30         0.370778   0.784214   0.666866   x 
            x  O           31         0.129129   0.284453   0.832941   x 
            x  O           32         0.630066   0.216038   0.332717   x 
            x  O           33         0.567127   0.662796   0.084907   x 
            x  O           34         0.067174   0.837140   0.585279   x 
            x  O           35         0.432171   0.336966   0.915316   x 
            x  O           36         0.932009   0.163794   0.415409   x 
            x  O           37         0.944859   0.399276   0.146802   x 
            x  O           38         0.444669   0.100998   0.646985   x 
            x  O           39         0.055218   0.601289   0.852849   x 
            x  O           40         0.555347   0.898819   0.352731   x 
            x  O           41         0.675293   0.479365   0.273358   x 
            x  O           42         0.175730   0.021298   0.773557   x 
            x  O           43         0.323717   0.521454   0.726698   x 
            x  O           44         0.824429   0.978812   0.226198   x 
            x  O           45         0.626846   0.349702   0.063663   x 
            x  O           46         0.126384   0.150132   0.564447   x 
            x  O           47         0.373001   0.649933   0.935947   x 
            x  O           48         0.874324   0.850590   0.435746   x 
            x  P            1         0.884398   0.598003   0.855097   x 
            x  P            2         0.384349   0.902008   0.354981   x 
            x  P            3         0.115756   0.402213   0.145046   x 
            x  P            4         0.615633   0.097889   0.644865   x 
            x  P            5         0.902401   0.878473   0.146157   x 
            x  P            6         0.402655   0.620776   0.646543   x 
            x  P            7         0.097212   0.121068   0.853738   x 
            x  P            8         0.597632   0.379166   0.353691   x 
            x  P            9         0.463410   0.749814   0.010392   x 
            x  P           10         0.963537   0.750072   0.510740   x 
            x  P           11         0.536383   0.249602   0.989344   x 
            x  P           12         0.036544   0.250276   0.489616   x 
            x  Zr           1         0.745461   0.953898   0.889886   x 
            x  Zr           2         0.245624   0.545495   0.390207   x 
            x  Zr           3         0.254131   0.045474   0.110155   x 
            x  Zr           4         0.754562   0.454330   0.610439   x 
            x  Zr           5         0.750673   0.525525   0.121397   x 
            x  Zr           6         0.250566   0.974046   0.621624   x 
            x  Zr           7         0.248854   0.473978   0.878934   x 
            x  Zr           8         0.749237   0.026098   0.378475   x 
            xxxxxxxxxxxxxxxxxxxxxxxxxxxxxxxxxxxxxxxxxxxxxxxxxxxxxxxxxxxx


                         No user defined ionic velocities

                           -------------------------------
                                   Details of Species
                           -------------------------------

                               Mass of species in AMU
                                    Li    6.9410000
                                    O   15.9994000
                                    P   30.9737600
                                    Zr   91.2240000

                          Electric Quadrupole Moment (Barn)
                                    Li   -0.0401000 Isotope   7
                                    O   -0.0255800 Isotope  17
                                    P    1.0000000 No Isotope Defined
                                    Zr   -0.1760000 Isotope  91

                          Files used for pseudopotentials:
                                    Li 1|1.0|14|16|18|10U:20(qc=7)
                                    O 2|1.1|17|20|23|20:21(qc=8)
                                    P 3|1.8|4|4|5|30:31:32
                                    Zr 3|2.1|7|8|9|40U:50:41:42

                           -------------------------------
                              k-Points For BZ Sampling
                           -------------------------------
                       MP grid size for SCF calculation is  4  4  3
                            with an offset of   0.000  0.000  0.000
                       Number of kpoints used =            24

                           -------------------------------
                               Symmetry and Constraints
                           -------------------------------

                      Maximum deviation from symmetry =  0.00000         ANG

                      Number of symmetry operations   =           1
                      Number of ionic constraints     =           3
                      Point group of crystal =     1: C1, 1, 1
                      Space group of crystal =     1: P1, P 1

             Set iprint > 1 for details on symmetry rotations/translations

                         Centre of mass is constrained
             Set iprint > 2 for details of linear ionic constraints

                         Number of cell constraints= 0
                         Cell constraints are:  1 2 3 4 5 6

                         External pressure/stress (GPa)
                          0.00000   0.00000   0.00000
                                    0.00000   0.00000
                                              0.00000
 
+---------------- MEMORY AND SCRATCH DISK ESTIMATES PER PROCESS --------------+
|                                                     Memory          Disk    |
| Baseline code, static data and system overhead      816.0 MB         0.0 MB |
| BLAS internal memory storage                          0.0 MB         0.0 MB |
| Model and support data                             2081.9 MB         0.0 MB |
| Electronic energy minimisation requirements        1022.6 MB         0.0 MB |
| Force calculation requirements                       48.9 MB         0.0 MB |
|                                               ----------------------------- |
| Approx. total storage required per process         3920.5 MB         0.0 MB |
|                                                                             |
| Requirements will fluctuate during execution and may exceed these estimates |
+-----------------------------------------------------------------------------+
Calculating approximate eigenstates for fixed initial Hamiltonian
Cut-off for approx. calculation is   89.988 eV
Improving approx. states at cut-off of  450.000 eV
Resetting cut-off to  900.000 eV
Calculating total energy with cut-off of  900.000 eV.
------------------------------------------------------------------------ <-- SCF
SCF loop      Energy           Fermi           Energy gain       Timer   <-- SCF
                               energy          per atom          (sec)   <-- SCF
------------------------------------------------------------------------ <-- SCF
Initial  -3.39806260E+004  0.00000000E+000                       210.02  <-- SCF
      1  -3.50239161E+004 -1.98715570E-002   1.44901408E+001     443.11  <-- SCF
      2  -3.50257124E+004 -2.26257434E-002   2.49491725E-002     667.90  <-- SCF
      3  -3.49940921E+004  9.43233005E-001  -4.39170964E-001     780.97  <-- SCF
      4  -3.49808312E+004  2.05604711E+000  -1.84179849E-001    1011.04  <-- SCF
      5  -3.49814095E+004  2.01274731E+000   8.03192006E-003    1269.87  <-- SCF
      6  -3.49810959E+004  2.26341847E+000  -4.35480675E-003    1364.34  <-- SCF
      7  -3.49811978E+004  2.33232798E+000   1.41486927E-003    1494.60  <-- SCF
      8  -3.49811955E+004  2.29665853E+000  -3.15252788E-005    1607.10  <-- SCF
      9  -3.49812139E+004  2.31869174E+000   2.55440033E-004    1714.68  <-- SCF
     10  -3.49812154E+004  2.31466698E+000   2.06151150E-005    1847.41  <-- SCF
     11  -3.49812162E+004  2.31263338E+000   1.06830360E-005    1955.99  <-- SCF
     12  -3.49812162E+004  2.32073387E+000   2.44556671E-007    2048.96  <-- SCF
     13  -3.49812162E+004  2.32250548E+000   6.79514465E-007    2123.67  <-- SCF
------------------------------------------------------------------------ <-- SCF
 
Final energy, E             =  -34981.21624204     eV
Final free energy (E-TS)    =  -34981.21624204     eV
(energies not corrected for finite basis set)
 
NB est. 0K energy (E-0.5TS)      =  -34981.21624204     eV
 

Writing analysis data to ml_dos.castep_bin

Writing model to ml_dos.check
 
+---------------- MEMORY AND SCRATCH DISK ESTIMATES PER PROCESS --------------+
|                                                     Memory          Disk    |
|                                               ----------------------------- |
| Approx. total storage required per process         3193.0 MB         0.0 MB |
|                                                                             |
| Requirements will fluctuate during execution and may exceed these estimates |
+-----------------------------------------------------------------------------+
 
  =====================================================================
  +                                                                   +
  +                 Calculation of Spectral Properties                +
  +                                                                   +
  + Calculation re-parallelised over 16 processes.                    +
  + There are 24 k-points distributed across 8 k-point groups.        +
  + Data distributed by G-vector(2-way), k-point(8-way), band(1-way)  +
  + Data distributed by G-vector(2-way), k-point(8-way)               +
  +                                                                   +
  =====================================================================

 Pseudo atomic calculation performed for Li 1s2 2s1

 Converged in 18 iterations to a total energy of -200.5098 eV

 Pseudo atomic calculation performed for O 2s2 2p4

 Converged in 24 iterations to a total energy of -432.3399 eV

 Pseudo atomic calculation performed for P 3s2 3p3

 Converged in 18 iterations to a total energy of -214.2237 eV

 Pseudo atomic calculation performed for Zr 4s2 4p6 4d2 5s2

 Converged in 25 iterations to a total energy of -1285.8617 eV
  Starting k-point:        1 of        3 Time:      0.00 sec  |<-- SPEC

 Pseudo atomic calculation performed for Li 1s2 2s1

 Converged in 18 iterations to a total energy of -200.5098 eV

 Pseudo atomic calculation performed for O 2s2 2p4

 Converged in 24 iterations to a total energy of -432.3399 eV

 Pseudo atomic calculation performed for P 3s2 3p3

 Converged in 18 iterations to a total energy of -214.2237 eV

 Pseudo atomic calculation performed for Zr 4s2 4p6 4d2 5s2

 Converged in 25 iterations to a total energy of -1285.8617 eV
  Starting k-point:        2 of        3 Time:    797.63 sec  |<-- SPEC

 Pseudo atomic calculation performed for Li 1s2 2s1

 Converged in 18 iterations to a total energy of -200.5098 eV

 Pseudo atomic calculation performed for O 2s2 2p4

 Converged in 24 iterations to a total energy of -432.3399 eV

 Pseudo atomic calculation performed for P 3s2 3p3

 Converged in 18 iterations to a total energy of -214.2237 eV

 Pseudo atomic calculation performed for Zr 4s2 4p6 4d2 5s2

 Converged in 25 iterations to a total energy of -1285.8617 eV
  Starting k-point:        3 of        3 Time:   1570.16 sec  |<-- SPEC

 Pseudo atomic calculation performed for Li 1s2 2s1

 Converged in 18 iterations to a total energy of -200.5098 eV

 Pseudo atomic calculation performed for O 2s2 2p4

 Converged in 24 iterations to a total energy of -432.3399 eV

 Pseudo atomic calculation performed for P 3s2 3p3

 Converged in 18 iterations to a total energy of -214.2237 eV

 Pseudo atomic calculation performed for Zr 4s2 4p6 4d2 5s2

 Converged in 25 iterations to a total energy of -1285.8617 eV
  Check-pointing spectral run                                 |<-- SPEC
  Total time to compute matrix elements           2332.91 sec |<-- SPEC
  
  + Calculation re-parallelised over 18 processes.                    +
  + Data distributed by G-vector(3-way), k-point(6-way)               +

 ************************** Forces **************************
 *                                                          *
 *               Cartesian components (eV/A)                *
 * -------------------------------------------------------- *
 *                         x            y            z      *
 *                                                          *
 * Li              1      0.01462     -0.01556      0.02316 *
 * Li              2     -0.00054      0.04012      0.03575 *
 * Li              3     -0.00469      0.01319     -0.01249 *
 * Li              4     -0.00108     -0.01442     -0.02257 *
 * O               1     -0.17256      0.06283     -0.36258 *
 * O               2     -0.17759     -0.06088     -0.37674 *
 * O               3      0.21361     -0.08273      0.44518 *
 * O               4      0.21331      0.05900      0.46890 *
 * O               5     -0.12322      0.27422      0.01659 *
 * O               6     -0.10752     -0.24590      0.00285 *
 * O               7      0.08371     -0.24007     -0.01008 *
 * O               8      0.10359      0.27491     -0.00192 *
 * O               9      0.35141      0.23703     -0.25922 *
 * O              10      0.33663     -0.23364     -0.20950 *
 * O              11     -0.38039     -0.24601      0.21611 *
 * O              12     -0.39347      0.21185      0.20480 *
 * O              13     -0.34864     -0.14474      0.03643 *
 * O              14     -0.32186      0.12331      0.01557 *
 * O              15      0.32848      0.12073     -0.03058 *
 * O              16      0.28354     -0.14393     -0.02685 *
 * O              17      0.07933     -0.10767      0.24771 *
 * O              18      0.10425      0.12534      0.27675 *
 * O              19     -0.08014      0.08377     -0.17857 *
 * O              20     -0.09358     -0.12338     -0.21562 *
 * O              21      0.21788     -0.30474     -0.16658 *
 * O              22      0.20063      0.21898     -0.15672 *
 * O              23     -0.23236      0.29786      0.13478 *
 * O              24     -0.20667     -0.26949      0.13753 *
 * O              25     -0.10524     -0.06094      0.28798 *
 * O              26     -0.14483      0.05990      0.33449 *
 * O              27      0.09697      0.02954     -0.29428 *
 * O              28      0.10506     -0.06319     -0.33267 *
 * O              29     -0.13123     -0.29896     -0.05103 *
 * O              30     -0.17630      0.35198     -0.06025 *
 * O              31      0.16622      0.31224      0.07263 *
 * O              32      0.16242     -0.35848      0.05865 *
 * O              33      0.30543     -0.26141      0.12829 *
 * O              34      0.31275      0.24017      0.15944 *
 * O              35     -0.28255      0.21867     -0.14723 *
 * O              36     -0.26701     -0.24706     -0.15519 *
 * O              37     -0.29388      0.09218     -0.01401 *
 * O              38     -0.26830     -0.12426     -0.02104 *
 * O              39      0.30622     -0.13495      0.04593 *
 * O              40      0.28666      0.14882      0.02953 *
 * O              41      0.15566      0.09427     -0.32986 *
 * O              42      0.16042     -0.12044     -0.32039 *
 * O              43     -0.12570     -0.12680      0.32680 *
 * O              44     -0.16345      0.11687      0.34642 *
 * O              45      0.24937      0.34779      0.23090 *
 * O              46      0.22882     -0.33207      0.14518 *
 * O              47     -0.21814     -0.31757     -0.22052 *
 * O              48     -0.24310      0.29771     -0.16662 *
 * P               1     -0.07682     -0.02303     -0.02049 *
 * P               2     -0.04137      0.03159     -0.03022 *
 * P               3      0.07568      0.02245     -0.01839 *
 * P               4      0.05917     -0.05661      0.00534 *
 * P               5     -0.02362      0.01677      0.00830 *
 * P               6     -0.01416      0.02350     -0.01138 *
 * P               7     -0.00771      0.04666     -0.05566 *
 * P               8     -0.01582      0.02502     -0.01898 *
 * P               9      0.01332      0.03404      0.18776 *
 * P              10      0.01288      0.00711      0.02923 *
 * P              11     -0.04673     -0.01478     -0.08510 *
 * P              12     -0.02815      0.08254      0.00186 *
 * Zr              1     -0.06833      0.10719      0.07816 *
 * Zr              2     -0.05618     -0.03714      0.18959 *
 * Zr              3      0.12778     -0.07482     -0.15625 *
 * Zr              4      0.09758      0.04315     -0.28405 *
 * Zr              5     -0.09918     -0.00093     -0.09621 *
 * Zr              6     -0.02798      0.01498     -0.04812 *
 * Zr              7      0.06145      0.01968      0.02193 *
 * Zr              8      0.05521     -0.04137      0.01744 *
 *                                                          *
 ************************************************************

 Pseudo atomic calculation performed for Li 1s2 2s1

 Converged in 18 iterations to a total energy of -200.5098 eV

 Pseudo atomic calculation performed for O 2s2 2p4

 Converged in 24 iterations to a total energy of -432.3399 eV

 Pseudo atomic calculation performed for P 3s2 3p3

 Converged in 18 iterations to a total energy of -214.2237 eV

 Pseudo atomic calculation performed for Zr 4s2 4p6 4d2 5s2

 Converged in 25 iterations to a total energy of -1285.8617 eV
Charge spilling parameter for spin component 1 = 0.93%

            Orbital Populations       
     Ion    Atom   Orbital             Charge
  -------------------------------------------
     Li     1      S                    2.001
     Li     1      S                   -0.025
     Li     1      Px                   0.019
     Li     1      Py                   0.029
     Li     1      Pz                   0.030
     Li     2      S                    2.001
     Li     2      S                   -0.025
     Li     2      Px                   0.019
     Li     2      Py                   0.029
     Li     2      Pz                   0.030
     Li     3      S                    2.001
     Li     3      S                   -0.025
     Li     3      Px                   0.019
     Li     3      Py                   0.029
     Li     3      Pz                   0.030
     Li     4      S                    2.001
     Li     4      S                   -0.025
     Li     4      Px                   0.020
     Li     4      Py                   0.029
     Li     4      Pz                   0.030
      O     1      S                    1.827
      O     1      Px                   1.766
      O     1      Py                   1.774
      O     1      Pz                   1.562
      O     2      S                    1.828
      O     2      Px                   1.767
      O     2      Py                   1.775
      O     2      Pz                   1.562
      O     3      S                    1.828
      O     3      Px                   1.767
      O     3      Py                   1.775
      O     3      Pz                   1.563
      O     4      S                    1.828
      O     4      Px                   1.766
      O     4      Py                   1.775
      O     4      Pz                   1.564
      O     5      S                    1.844
      O     5      Px                   1.769
      O     5      Py                   1.574
      O     5      Pz                   1.779
      O     6      S                    1.844
      O     6      Px                   1.769
      O     6      Py                   1.573
      O     6      Pz                   1.779
      O     7      S                    1.844
      O     7      Px                   1.768
      O     7      Py                   1.573
      O     7      Pz                   1.779
      O     8      S                    1.844
      O     8      Px                   1.768
      O     8      Py                   1.574
      O     8      Pz                   1.779
      O     9      S                    1.830
      O     9      Px                   1.685
      O     9      Py                   1.690
      O     9      Pz                   1.722
      O    10      S                    1.830
      O    10      Px                   1.685
      O    10      Py                   1.690
      O    10      Pz                   1.721
      O    11      S                    1.831
      O    11      Px                   1.686
      O    11      Py                   1.691
      O    11      Pz                   1.721
      O    12      S                    1.831
      O    12      Px                   1.687
      O    12      Py                   1.689
      O    12      Pz                   1.720
      O    13      S                    1.841
      O    13      Px                   1.542
      O    13      Py                   1.782
      O    13      Pz                   1.815
      O    14      S                    1.841
      O    14      Px                   1.542
      O    14      Py                   1.782
      O    14      Pz                   1.815
      O    15      S                    1.841
      O    15      Px                   1.542
      O    15      Py                   1.782
      O    15      Pz                   1.815
      O    16      S                    1.841
      O    16      Px                   1.541
      O    16      Py                   1.782
      O    16      Pz                   1.815
      O    17      S                    1.839
      O    17      Px                   1.789
      O    17      Py                   1.683
      O    17      Pz                   1.661
      O    18      S                    1.838
      O    18      Px                   1.789
      O    18      Py                   1.684
      O    18      Pz                   1.661
      O    19      S                    1.838
      O    19      Px                   1.788
      O    19      Py                   1.684
      O    19      Pz                   1.660
      O    20      S                    1.838
      O    20      Px                   1.789
      O    20      Py                   1.684
      O    20      Pz                   1.660
      O    21      S                    1.839
      O    21      Px                   1.701
      O    21      Py                   1.698
      O    21      Pz                   1.731
      O    22      S                    1.839
      O    22      Px                   1.701
      O    22      Py                   1.696
      O    22      Pz                   1.732
      O    23      S                    1.839
      O    23      Px                   1.702
      O    23      Py                   1.697
      O    23      Pz                   1.731
      O    24      S                    1.839
      O    24      Px                   1.701
      O    24      Py                   1.698
      O    24      Pz                   1.732
      O    25      S                    1.825
      O    25      Px                   1.768
      O    25      Py                   1.787
      O    25      Pz                   1.581
      O    26      S                    1.825
      O    26      Px                   1.768
      O    26      Py                   1.787
      O    26      Pz                   1.581
      O    27      S                    1.825
      O    27      Px                   1.768
      O    27      Py                   1.786
      O    27      Pz                   1.581
      O    28      S                    1.825
      O    28      Px                   1.767
      O    28      Py                   1.787
      O    28      Pz                   1.581
      O    29      S                    1.838
      O    29      Px                   1.779
      O    29      Py                   1.546
      O    29      Pz                   1.790
      O    30      S                    1.839
      O    30      Px                   1.779
      O    30      Py                   1.546
      O    30      Pz                   1.790
      O    31      S                    1.839
      O    31      Px                   1.779
      O    31      Py                   1.545
      O    31      Pz                   1.789
      O    32      S                    1.838
      O    32      Px                   1.779
      O    32      Py                   1.546
      O    32      Pz                   1.789
      O    33      S                    1.835
      O    33      Px                   1.679
      O    33      Py                   1.724
      O    33      Pz                   1.717
      O    34      S                    1.835
      O    34      Px                   1.678
      O    34      Py                   1.723
      O    34      Pz                   1.717
      O    35      S                    1.834
      O    35      Px                   1.678
      O    35      Py                   1.723
      O    35      Pz                   1.719
      O    36      S                    1.834
      O    36      Px                   1.677
      O    36      Py                   1.724
      O    36      Pz                   1.718
      O    37      S                    1.843
      O    37      Px                   1.531
      O    37      Py                   1.775
      O    37      Pz                   1.795
      O    38      S                    1.843
      O    38      Px                   1.530
      O    38      Py                   1.775
      O    38      Pz                   1.795
      O    39      S                    1.843
      O    39      Px                   1.531
      O    39      Py                   1.775
      O    39      Pz                   1.795
      O    40      S                    1.843
      O    40      Px                   1.530
      O    40      Py                   1.775
      O    40      Pz                   1.795
      O    41      S                    1.838
      O    41      Px                   1.742
      O    41      Py                   1.722
      O    41      Pz                   1.645
      O    42      S                    1.838
      O    42      Px                   1.741
      O    42      Py                   1.723
      O    42      Pz                   1.645
      O    43      S                    1.838
      O    43      Px                   1.740
      O    43      Py                   1.724
      O    43      Pz                   1.645
      O    44      S                    1.838
      O    44      Px                   1.742
      O    44      Py                   1.722
      O    44      Pz                   1.645
      O    45      S                    1.831
      O    45      Px                   1.723
      O    45      Py                   1.683
      O    45      Pz                   1.713
      O    46      S                    1.831
      O    46      Px                   1.723
      O    46      Py                   1.683
      O    46      Pz                   1.712
      O    47      S                    1.831
      O    47      Px                   1.722
      O    47      Py                   1.683
      O    47      Pz                   1.714
      O    48      S                    1.831
      O    48      Px                   1.724
      O    48      Py                   1.682
      O    48      Pz                   1.712
      P     1      S                    0.906
      P     1      Px                   0.609
      P     1      Py                   0.637
      P     1      Pz                   0.610
      P     2      S                    0.907
      P     2      Px                   0.609
      P     2      Py                   0.637
      P     2      Pz                   0.610
      P     3      S                    0.906
      P     3      Px                   0.608
      P     3      Py                   0.636
      P     3      Pz                   0.610
      P     4      S                    0.906
      P     4      Px                   0.609
      P     4      Py                   0.636
      P     4      Pz                   0.610
      P     5      S                    0.891
      P     5      Px                   0.618
      P     5      Py                   0.599
      P     5      Pz                   0.613
      P     6      S                    0.891
      P     6      Px                   0.619
      P     6      Py                   0.599
      P     6      Pz                   0.613
      P     7      S                    0.890
      P     7      Px                   0.618
      P     7      Py                   0.600
      P     7      Pz                   0.612
      P     8      S                    0.890
      P     8      Px                   0.619
      P     8      Py                   0.599
      P     8      Pz                   0.613
      P     9      S                    0.887
      P     9      Px                   0.619
      P     9      Py                   0.614
      P     9      Pz                   0.598
      P    10      S                    0.888
      P    10      Px                   0.619
      P    10      Py                   0.614
      P    10      Pz                   0.598
      P    11      S                    0.887
      P    11      Px                   0.619
      P    11      Py                   0.614
      P    11      Pz                   0.598
      P    12      S                    0.888
      P    12      Px                   0.619
      P    12      Py                   0.614
      P    12      Pz                   0.598
     Zr     1      S                    1.993
     Zr     1      Px                   1.990
     Zr     1      Py                   1.989
     Zr     1      Pz                   1.989
     Zr     1      S                    0.252
     Zr     1      Dzz                  0.390
     Zr     1      Dzy                  0.332
     Zr     1      Dzx                  0.367
     Zr     1      Dxx-yy               0.324
     Zr     1      Dxy                  0.391
     Zr     1      Px                   0.057
     Zr     1      Py                   0.051
     Zr     1      Pz                   0.047
     Zr     2      S                    1.993
     Zr     2      Px                   1.990
     Zr     2      Py                   1.989
     Zr     2      Pz                   1.989
     Zr     2      S                    0.252
     Zr     2      Dzz                  0.390
     Zr     2      Dzy                  0.332
     Zr     2      Dzx                  0.367
     Zr     2      Dxx-yy               0.324
     Zr     2      Dxy                  0.391
     Zr     2      Px                   0.057
     Zr     2      Py                   0.051
     Zr     2      Pz                   0.048
     Zr     3      S                    1.993
     Zr     3      Px                   1.990
     Zr     3      Py                   1.989
     Zr     3      Pz                   1.989
     Zr     3      S                    0.253
     Zr     3      Dzz                  0.390
     Zr     3      Dzy                  0.332
     Zr     3      Dzx                  0.367
     Zr     3      Dxx-yy               0.324
     Zr     3      Dxy                  0.391
     Zr     3      Px                   0.057
     Zr     3      Py                   0.052
     Zr     3      Pz                   0.048
     Zr     4      S                    1.993
     Zr     4      Px                   1.990
     Zr     4      Py                   1.989
     Zr     4      Pz                   1.989
     Zr     4      S                    0.253
     Zr     4      Dzz                  0.390
     Zr     4      Dzy                  0.332
     Zr     4      Dzx                  0.367
     Zr     4      Dxx-yy               0.324
     Zr     4      Dxy                  0.391
     Zr     4      Px                   0.057
     Zr     4      Py                   0.051
     Zr     4      Pz                   0.048
     Zr     5      S                    1.995
     Zr     5      Px                   1.990
     Zr     5      Py                   1.990
     Zr     5      Pz                   1.990
     Zr     5      S                    0.198
     Zr     5      Dzz                  0.372
     Zr     5      Dzy                  0.337
     Zr     5      Dzx                  0.349
     Zr     5      Dxx-yy               0.329
     Zr     5      Dxy                  0.393
     Zr     5      Px                   0.052
     Zr     5      Py                   0.057
     Zr     5      Pz                   0.064
     Zr     6      S                    1.995
     Zr     6      Px                   1.990
     Zr     6      Py                   1.990
     Zr     6      Pz                   1.990
     Zr     6      S                    0.198
     Zr     6      Dzz                  0.371
     Zr     6      Dzy                  0.336
     Zr     6      Dzx                  0.349
     Zr     6      Dxx-yy               0.329
     Zr     6      Dxy                  0.393
     Zr     6      Px                   0.052
     Zr     6      Py                   0.057
     Zr     6      Pz                   0.064
     Zr     7      S                    1.995
     Zr     7      Px                   1.990
     Zr     7      Py                   1.990
     Zr     7      Pz                   1.990
     Zr     7      S                    0.198
     Zr     7      Dzz                  0.372
     Zr     7      Dzy                  0.337
     Zr     7      Dzx                  0.349
     Zr     7      Dxx-yy               0.329
     Zr     7      Dxy                  0.393
     Zr     7      Px                   0.051
     Zr     7      Py                   0.057
     Zr     7      Pz                   0.064
     Zr     8      S                    1.995
     Zr     8      Px                   1.990
     Zr     8      Py                   1.990
     Zr     8      Pz                   1.990
     Zr     8      S                    0.198
     Zr     8      Dzz                  0.371
     Zr     8      Dzy                  0.337
     Zr     8      Dzx                  0.349
     Zr     8      Dxx-yy               0.329
     Zr     8      Dxy                  0.393
     Zr     8      Px                   0.052
     Zr     8      Py                   0.057
     Zr     8      Pz                   0.064
  -------------------------------------------
                           Total:     455.989
  -------------------------------------------

     Atomic Populations (Mulliken)
     -----------------------------
Species          Ion     s       p       d       f      Total   Charge (e)
==========================================================================
  Li              1     1.976   0.078   0.000   0.000   2.054     0.946
  Li              2     1.976   0.079   0.000   0.000   2.054     0.946
  Li              3     1.976   0.079   0.000   0.000   2.054     0.946
  Li              4     1.976   0.078   0.000   0.000   2.054     0.946
  O               1     1.827   5.103   0.000   0.000   6.931    -0.931
  O               2     1.828   5.104   0.000   0.000   6.931    -0.931
  O               3     1.828   5.106   0.000   0.000   6.933    -0.933
  O               4     1.828   5.105   0.000   0.000   6.933    -0.933
  O               5     1.844   5.121   0.000   0.000   6.965    -0.965
  O               6     1.844   5.121   0.000   0.000   6.965    -0.965
  O               7     1.844   5.121   0.000   0.000   6.965    -0.965
  O               8     1.844   5.121   0.000   0.000   6.965    -0.965
  O               9     1.830   5.098   0.000   0.000   6.928    -0.928
  O              10     1.830   5.097   0.000   0.000   6.927    -0.927
  O              11     1.831   5.098   0.000   0.000   6.928    -0.928
  O              12     1.831   5.096   0.000   0.000   6.927    -0.927
  O              13     1.841   5.139   0.000   0.000   6.980    -0.980
  O              14     1.841   5.138   0.000   0.000   6.980    -0.980
  O              15     1.841   5.138   0.000   0.000   6.979    -0.979
  O              16     1.841   5.138   0.000   0.000   6.979    -0.979
  O              17     1.839   5.134   0.000   0.000   6.972    -0.972
  O              18     1.838   5.135   0.000   0.000   6.973    -0.973
  O              19     1.838   5.133   0.000   0.000   6.971    -0.971
  O              20     1.838   5.133   0.000   0.000   6.971    -0.971
  O              21     1.839   5.130   0.000   0.000   6.970    -0.970
  O              22     1.839   5.129   0.000   0.000   6.969    -0.969
  O              23     1.839   5.130   0.000   0.000   6.969    -0.969
  O              24     1.839   5.130   0.000   0.000   6.970    -0.970
  O              25     1.825   5.136   0.000   0.000   6.961    -0.961
  O              26     1.825   5.136   0.000   0.000   6.962    -0.962
  O              27     1.825   5.135   0.000   0.000   6.960    -0.960
  O              28     1.825   5.135   0.000   0.000   6.961    -0.961
  O              29     1.838   5.114   0.000   0.000   6.953    -0.953
  O              30     1.839   5.115   0.000   0.000   6.953    -0.953
  O              31     1.839   5.114   0.000   0.000   6.953    -0.953
  O              32     1.838   5.115   0.000   0.000   6.953    -0.953
  O              33     1.835   5.119   0.000   0.000   6.954    -0.954
  O              34     1.835   5.119   0.000   0.000   6.954    -0.954
  O              35     1.834   5.119   0.000   0.000   6.954    -0.954
  O              36     1.834   5.120   0.000   0.000   6.954    -0.954
  O              37     1.843   5.101   0.000   0.000   6.944    -0.944
  O              38     1.843   5.100   0.000   0.000   6.943    -0.943
  O              39     1.843   5.101   0.000   0.000   6.944    -0.944
  O              40     1.843   5.100   0.000   0.000   6.943    -0.943
  O              41     1.838   5.109   0.000   0.000   6.947    -0.947
  O              42     1.838   5.109   0.000   0.000   6.947    -0.947
  O              43     1.838   5.110   0.000   0.000   6.948    -0.948
  O              44     1.838   5.109   0.000   0.000   6.948    -0.948
  O              45     1.831   5.119   0.000   0.000   6.950    -0.950
  O              46     1.831   5.118   0.000   0.000   6.949    -0.949
  O              47     1.831   5.119   0.000   0.000   6.950    -0.950
  O              48     1.831   5.118   0.000   0.000   6.949    -0.949
  P               1     0.906   1.855   0.000   0.000   2.761     2.239
  P               2     0.907   1.855   0.000   0.000   2.762     2.238
  P               3     0.906   1.855   0.000   0.000   2.761     2.239
  P               4     0.906   1.855   0.000   0.000   2.761     2.239
  P               5     0.891   1.831   0.000   0.000   2.722     2.278
  P               6     0.891   1.831   0.000   0.000   2.722     2.278
  P               7     0.890   1.831   0.000   0.000   2.721     2.279
  P               8     0.890   1.830   0.000   0.000   2.720     2.280
  P               9     0.887   1.831   0.000   0.000   2.718     2.282
  P              10     0.888   1.831   0.000   0.000   2.719     2.281
  P              11     0.887   1.831   0.000   0.000   2.718     2.282
  P              12     0.888   1.832   0.000   0.000   2.720     2.280
  Zr              1     2.246   6.124   1.804   0.000  10.174     1.826
  Zr              2     2.246   6.124   1.804   0.000  10.174     1.826
  Zr              3     2.246   6.125   1.804   0.000  10.175     1.825
  Zr              4     2.247   6.125   1.804   0.000  10.176     1.824
  Zr              5     2.192   6.142   1.779   0.000  10.114     1.886
  Zr              6     2.193   6.143   1.778   0.000  10.114     1.886
  Zr              7     2.192   6.142   1.779   0.000  10.114     1.886
  Zr              8     2.193   6.144   1.778   0.000  10.115     1.885
==========================================================================

                 Bond                   Population      Length (A)
======================================================================
              O 26 -- P 2                    0.68        1.52949
              O 25 -- P 1                    0.68        1.52970
              O 47 -- P 9                    0.66        1.52996
              O 28 -- P 4                    0.68        1.53018
              O 45 -- P 11                   0.66        1.53044
              O 27 -- P 3                    0.68        1.53071
              O 46 -- P 12                   0.66        1.53168
              O 36 -- P 12                   0.67        1.53178
              O 48 -- P 10                   0.66        1.53206
              O 34 -- P 10                   0.67        1.53221
              O 33 -- P 9                    0.68        1.53223
              O 39 -- P 1                    0.67        1.53274
              O 35 -- P 11                   0.67        1.53284
              O 37 -- P 3                    0.67        1.53319
              O 38 -- P 4                    0.67        1.53395
              O 40 -- P 2                    0.67        1.53432
              O 43 -- P 6                    0.66        1.53505
              O 44 -- P 5                    0.66        1.53552
              O 42 -- P 7                    0.66        1.53590
              O 41 -- P 8                    0.66        1.53592
              O 32 -- P 8                    0.67        1.53703
              O 29 -- P 5                    0.67        1.53718
              O 30 -- P 6                    0.67        1.53741
              O 31 -- P 7                    0.67        1.53803
              O 9  -- P 9                    0.63        1.54594
              O 11 -- P 11                   0.63        1.54641
              O 10 -- P 10                   0.63        1.54677
              O 12 -- P 12                   0.63        1.54769
              O 3  -- P 7                    0.61        1.55190
              O 4  -- P 8                    0.61        1.55203
              O 2  -- P 6                    0.61        1.55407
              O 1  -- P 5                    0.61        1.55440
              O 13 -- P 7                    0.61        1.55583
              O 15 -- P 5                    0.61        1.55648
              O 14 -- P 8                    0.61        1.55673
              O 16 -- P 6                    0.61        1.55745
              O 21 -- P 11                   0.60        1.56247
              O 24 -- P 10                   0.60        1.56274
              O 23 -- P 9                    0.60        1.56359
              O 22 -- P 12                   0.60        1.56363
              O 18 -- P 3                    0.61        1.56531
              O 17 -- P 4                    0.61        1.56687
              O 20 -- P 1                    0.61        1.56744
              O 5  -- P 1                    0.60        1.56746
              O 6  -- P 2                    0.61        1.56764
              O 8  -- P 4                    0.60        1.56776
              O 7  -- P 3                    0.61        1.56808
              O 19 -- P 2                    0.61        1.56897
              Li 1 -- O 18                   0.09        2.00045
              Li 2 -- O 17                   0.09        2.00393
              Li 4 -- O 19                   0.09        2.00398
              Li 3 -- O 20                   0.09        2.00421
              Li 2 -- O 24                   0.07        2.02533
              O 1  -- Zr 1                   0.43        2.02846
              O 2  -- Zr 2                   0.43        2.03015
              Li 1 -- O 23                   0.07        2.03129
              Li 3 -- O 21                   0.07        2.03151
              O 3  -- Zr 3                   0.43        2.03273
              O 4  -- Zr 4                   0.43        2.03532
              Li 4 -- O 22                   0.07        2.03567
              O 9  -- Zr 1                   0.42        2.04188
              Li 2 -- O 16                   0.07        2.04227
              O 10 -- Zr 2                   0.42        2.04294
              Li 3 -- O 13                   0.07        2.04381
              Li 1 -- O 15                   0.07        2.04496
              Li 4 -- O 14                   0.07        2.04508
              Li 2 -- O 5                    0.09        2.04627
              O 12 -- Zr 4                   0.42        2.04649
              O 11 -- Zr 3                   0.42        2.04671
              Li 3 -- O 8                    0.09        2.04707
              Li 4 -- O 7                    0.09        2.04769
              Li 1 -- O 6                    0.09        2.05206
              O 47 -- Zr 7                   0.39        2.07327
              O 45 -- Zr 5                   0.39        2.07390
              O 46 -- Zr 6                   0.39        2.07506
              O 48 -- Zr 8                   0.39        2.07573
              O 41 -- Zr 5                   0.35        2.08012
              O 42 -- Zr 6                   0.35        2.08018
              O 43 -- Zr 7                   0.35        2.08421
              O 44 -- Zr 8                   0.35        2.08531
              O 29 -- Zr 5                   0.37        2.10688
              O 37 -- Zr 5                   0.36        2.10718
              O 27 -- Zr 7                   0.40        2.10720
              O 34 -- Zr 6                   0.38        2.10867
              O 35 -- Zr 7                   0.38        2.10881
              O 32 -- Zr 8                   0.37        2.10885
              O 31 -- Zr 7                   0.37        2.10904
              O 39 -- Zr 7                   0.36        2.10963
              O 38 -- Zr 6                   0.36        2.10999
              O 36 -- Zr 8                   0.38        2.11016
              O 40 -- Zr 8                   0.36        2.11073
              O 30 -- Zr 6                   0.37        2.11104
              O 28 -- Zr 8                   0.40        2.11155
              O 33 -- Zr 5                   0.38        2.11208
              O 25 -- Zr 5                   0.40        2.11227
              O 26 -- Zr 6                   0.40        2.11694
              O 22 -- Zr 2                   0.34        2.12116
              O 23 -- Zr 3                   0.34        2.12631
              O 24 -- Zr 4                   0.34        2.12665
              O 21 -- Zr 1                   0.34        2.12744
              O 8  -- Zr 4                   0.35        2.14361
              O 5  -- Zr 1                   0.34        2.14402
              O 7  -- Zr 3                   0.34        2.14467
              O 6  -- Zr 2                   0.34        2.14567
              O 19 -- Zr 3                   0.36        2.15287
              O 20 -- Zr 4                   0.36        2.15329
              O 16 -- Zr 4                   0.34        2.15797
              O 15 -- Zr 3                   0.34        2.15972
              O 14 -- Zr 2                   0.34        2.15976
              O 17 -- Zr 1                   0.36        2.16035
              O 18 -- Zr 2                   0.36        2.16057
              O 13 -- Zr 1                   0.34        2.16222
              O 21 -- O 45                  -0.13        2.49413
              O 23 -- O 47                  -0.13        2.49587
              O 13 -- O 31                  -0.13        2.49748
              O 16 -- O 30                  -0.13        2.49799
              O 12 -- O 46                  -0.13        2.49817
              O 14 -- O 32                  -0.13        2.49853
              O 18 -- O 27                  -0.13        2.49936
              O 22 -- O 46                  -0.13        2.49964
              O 10 -- O 48                  -0.12        2.50009
              O 11 -- O 45                  -0.12        2.50019
              O 24 -- O 48                  -0.13        2.50081
              O 15 -- O 29                  -0.13        2.50094
              O 17 -- O 28                  -0.13        2.50170
              O 9  -- O 47                  -0.12        2.50233
              O 20 -- O 25                  -0.13        2.50380
              O 19 -- O 26                  -0.13        2.50401
              O 23 -- O 33                  -0.12        2.50487
              O 24 -- O 34                  -0.12        2.50730
              O 21 -- O 35                  -0.12        2.50894
              O 22 -- O 36                  -0.12        2.50904
              O 4  -- O 41                  -0.12        2.50999
              O 2  -- O 43                  -0.12        2.51173
              O 3  -- O 42                  -0.12        2.51178
              O 1  -- O 44                  -0.12        2.51277
              O 3  -- O 13                  -0.12        2.52364
              O 4  -- O 14                  -0.12        2.52365
              O 1  -- O 15                  -0.12        2.52452
              O 18 -- O 37                  -0.12        2.52516
              O 20 -- O 39                  -0.12        2.52523
              O 2  -- O 16                  -0.12        2.52552
              O 19 -- O 40                  -0.12        2.52758
              O 17 -- O 38                  -0.12        2.52770
              O 9  -- O 33                  -0.12        2.52843
              O 8  -- O 28                  -0.12        2.52871
              O 10 -- O 34                  -0.12        2.52907
              O 15 -- O 44                  -0.12        2.52969
              O 11 -- O 35                  -0.12        2.53006
              O 3  -- O 31                  -0.12        2.53042
              O 2  -- O 30                  -0.12        2.53043
              O 1  -- O 29                  -0.12        2.53046
              O 13 -- O 42                  -0.12        2.53058
              O 5  -- O 25                  -0.12        2.53060
              O 14 -- O 41                  -0.12        2.53094
              O 12 -- O 36                  -0.12        2.53114
              O 4  -- O 32                  -0.12        2.53155
              O 6  -- O 26                  -0.12        2.53160
              O 7  -- O 27                  -0.12        2.53186
              O 16 -- O 43                  -0.12        2.53481
              O 5  -- O 39                  -0.12        2.53605
              O 27 -- O 37                  -0.12        2.53774
              O 6  -- O 40                  -0.12        2.53832
              O 12 -- O 22                  -0.11        2.53881
              O 26 -- O 40                  -0.12        2.53919
              O 8  -- O 38                  -0.12        2.53927
              O 7  -- O 37                  -0.12        2.54033
              O 28 -- O 38                  -0.12        2.54036
              O 9  -- O 23                  -0.11        2.54044
              O 25 -- O 39                  -0.12        2.54051
              O 35 -- O 45                  -0.12        2.54068
              O 34 -- O 48                  -0.12        2.54083
              O 5  -- O 20                  -0.11        2.54152
              O 11 -- O 21                  -0.11        2.54233
              O 10 -- O 24                  -0.11        2.54249
              O 33 -- O 47                  -0.12        2.54301
              O 7  -- O 18                  -0.11        2.54341
              O 8  -- O 17                  -0.11        2.54364
              O 6  -- O 19                  -0.11        2.54478
              O 30 -- O 43                  -0.12        2.54514
              O 32 -- O 41                  -0.12        2.54549
              O 36 -- O 46                  -0.12        2.54558
              O 31 -- O 42                  -0.12        2.54614
              O 29 -- O 44                  -0.12        2.54631
              O 14 -- O 22                  -0.04        2.72001
              O 16 -- O 24                  -0.04        2.72064
              O 15 -- O 23                  -0.04        2.72206
              O 13 -- O 21                  -0.04        2.72238
              O 5  -- O 17                  -0.03        2.72992
              O 7  -- O 19                  -0.03        2.73035
              O 6  -- O 18                  -0.03        2.73095
              O 8  -- O 20                  -0.03        2.73255
              O 27 -- O 47                  -0.02        2.88254
              O 25 -- O 45                  -0.02        2.88895
              O 16 -- O 20                  -0.02        2.89052
              O 26 -- O 38                  -0.02        2.89202
              O 25 -- O 37                  -0.02        2.89277
              O 28 -- O 48                  -0.02        2.89278
              O 26 -- O 46                  -0.02        2.89341
              O 13 -- O 17                  -0.02        2.89343
              O 15 -- O 19                  -0.02        2.89561
              O 27 -- O 39                  -0.02        2.89665
              O 28 -- O 40                  -0.02        2.89738
              O 14 -- O 18                  -0.02        2.89783
              O 42 -- O 46                  -0.02        2.90937
              O 43 -- O 47                  -0.02        2.90955
              O 36 -- O 48                  -0.02        2.91019
              O 35 -- O 47                  -0.02        2.91082
              O 34 -- O 46                  -0.02        2.91134
              O 44 -- O 48                  -0.02        2.91280
              O 33 -- O 45                  -0.02        2.91357
              O 12 -- O 24                  -0.02        2.91476
              O 10 -- O 22                  -0.02        2.91559
              O 11 -- O 23                  -0.02        2.91579
              O 1  -- O 9                   -0.02        2.91632
              O 9  -- O 21                  -0.02        2.91640
              O 41 -- O 45                  -0.02        2.91794
              O 2  -- O 10                  -0.02        2.92011
              O 3  -- O 11                  -0.02        2.92474
              O 32 -- O 36                  -0.02        2.92602
              O 4  -- O 12                  -0.02        2.92647
              O 29 -- O 33                  -0.02        2.92940
              O 31 -- O 35                  -0.02        2.93412
              O 2  -- O 14                  -0.02        2.93487
              O 30 -- O 34                  -0.02        2.93603
              O 3  -- O 15                  -0.02        2.93973
              O 1  -- O 13                  -0.02        2.94035
              O 4  -- O 16                  -0.02        2.94207
              O 28 -- O 36                  -0.02        2.94617
              O 27 -- O 35                  -0.02        2.94926
              O 25 -- O 29                  -0.02        2.94958
              O 25 -- O 33                  -0.02        2.95175
              O 19 -- O 23                  -0.02        2.95321
              O 28 -- O 32                  -0.02        2.95513
              O 26 -- O 30                  -0.02        2.95624
              O 18 -- O 22                  -0.02        2.95737
              O 17 -- O 21                  -0.02        2.95851
              O 20 -- O 24                  -0.02        2.95895
              O 27 -- O 31                  -0.02        2.95938
              O 26 -- O 34                  -0.02        2.96033
              O 29 -- O 37                  -0.02        2.96723
              O 30 -- O 38                  -0.02        2.97080
              O 31 -- O 39                  -0.02        2.97132
              O 32 -- O 40                  -0.02        2.97646
              O 39 -- O 43                  -0.01        2.99211
              O 38 -- O 42                  -0.01        2.99790
              O 40 -- O 44                  -0.01        2.99932
======================================================================


Writing analysis data to ml_dos.castep_bin

Writing model to ml_dos.check
 
 A BibTeX formatted list of references used in this run has been written to 
 ml_dos.bib
 
Initialisation time =     17.20 s
Calculation time    =   4639.96 s
Finalisation time   =      7.90 s
Total time          =   4665.06 s
Peak Memory Use     = 4807980 kB
 
Overall parallel efficiency rating: Very good (82%)
 
Data was distributed by:-
G-vector (3-way); efficiency rating: Very good (87%)
k-point (6-way); efficiency rating: Excellent (93%)
