 +-------------------------------------------------+
 |                                                 |
 |      CCC   AA    SSS  TTTTT  EEEEE  PPPP        |
 |     C     A  A  S       T    E      P   P       |
 |     C     AAAA   SS     T    EEE    PPPP        |
 |     C     A  A     S    T    E      P           |
 |      CCC  A  A  SSS     T    EEEEE  P           |
 |                                                 |
 +-------------------------------------------------+
 |                                                 |
 | Welcome to Academic Release CASTEP version 25.12|
 | Ab Initio Total Energy Program                  |
 |                                                 |
 | Authors:                                        |
 | M. Segall, M. Probert, C. Pickard, P. Hasnip,   |
 | S. Clark, K. Refson, J. R. Yates,               |
 | A. Bartok-Partay, M. Payne                      |
 |                                                 |
 | Contributors:                                   |
 | P. Lindan, P. Haynes, J. White, V. Milman,      |
 | N. Govind, M. Gibson, P. Tulip, V. Cocula,      |
 | B. Montanari, D. Quigley, M. Glover,            |
 | L. Bernasconi, A. Perlov, M. Plummer,           |
 | E. McNellis, J. Meyer, J. Gale, D. Jochym       |
 | J. Aarons, B. Walker, R. Gillen, D. Jones       |
 | T. Green, I. J. Bush, C. J. Armstrong,          |
 | E. J. Higgins, E. L. Brown, M. S. McFly,        |
 | J. Wilkins, B-C. Shih, P. J. P. Byrne,          |
 | R. J. Maurer, J. C. Womack, J. Dziedzic,        |
 | L. LeBlanc, T. K. Stenczel, J. Kermode,         |
 | S. Sturniolo, B. Shi, B. Durham, M. Evans,      |
 | M. J. Smith, A. Tamerus, Z. Hawkhead,           |
 | V. Ravindran, T. Hollins, S. A. Joyce,          |
 | R. T. Strong, A. M. Reilly, S. J. Donaldson,    |
 | J. C. A. Prentice                               |
 |                                                 |
 | Copyright (c) 2000 - 2024                       |
 |                                                 |
 |     Distributed under license from Cambridge    |
 |     Enterprise for academic use only.           |
 |                                                 |
 | Please cite                                     |
 |                                                 |
 |     "First principles methods using CASTEP"     |
 |                                                 |
 |         Zeitschrift fuer Kristallographie       |
 |           220(5-6) pp. 567-570 (2005)           |
 |                                                 |
 | S. J. Clark, M. D. Segall, C. J. Pickard,       |
 | P. J. Hasnip, M. J. Probert, K. Refson,         |
 | M. C. Payne                                     |
 |                                                 |
 |       in all publications arising from          |
 |              your use of CASTEP                 |
 |                                                 |
 +-------------------------------------------------+
 |                                                 |
 |              http://www.castep.org              |
 |                                                 |
 +-------------------------------------------------+



 Compiled for linux_x86_64_gfortran10 on Sun, 13 Jul 2025 14:49:40 -0400
 from code version git version unavailable
 Compiler: GNU Fortran 13.3.0; Optimisation: fast
 Comms   : Open MPI v5.0.3
 MATHLIBS: flexiblas (IMKL) (LAPACK version 3.12.0)
 FFT Lib : fftw3 version fftw-3.3.10-sse2-avx-avx2-avx2_128
 Fundamental constants values: CODATA 2018

 Run started: Sun, 21 Dec 2025 22:12:35 -0500
 Warning in parameters_read: presetting of magnetic moments on atoms cannot be guaranteed when metals_method /= density mixing

 Atomic calculation performed for Li: 1s2 2s1

 Converged in 47 iterations to an ae energy of -202.784 eV

   ============================================================                
   | Pseudopotential Report - Date of generation 21-12-2025   |                
   ------------------------------------------------------------                
   | Element: Li Ionic charge:  3.00 Level of theory: PBE     |                
   | Atomic Solver: Koelling-Harmon                           |                
   |                                                          |                
   |               Reference Electronic Structure             |                
   |         Orbital         Occupation         Energy        |                
   |            1s              2.000           -1.906        |                
   |            2s              1.000           -0.106        |                
   |                                                          |                
   |                 Pseudopotential Definition               |                
   |        Beta     l      e      Rc     scheme   norm       |                
   |          1      0   -1.906   1.001     qc      0         |                
   |          2      0   -0.106   1.001     qc      0         |                
   |          3      0    0.250   1.001     qc      0         |                
   |         loc     1    0.000   1.001     pn      0         |                
   |                                                          |                
   | Augmentation charge Rinner = 0.699                       |                
   | No partial core correction                               |                
   ------------------------------------------------------------                
   | "1|1.0|14|16|18|10U:20(qc=7)"                            |                
   ------------------------------------------------------------                
   |      Author: Chris J. Pickard, Cambridge University      |                
   ============================================================                

 Atomic calculation performed for O: 1s2 2s2 2p4

 Converged in 61 iterations to an ae energy of -2040.902 eV

   ============================================================                
   | Pseudopotential Report - Date of generation 21-12-2025   |                
   ------------------------------------------------------------                
   | Element: O Ionic charge:  6.00 Level of theory: PBE      |                
   | Atomic Solver: Koelling-Harmon                           |                
   |                                                          |                
   |               Reference Electronic Structure             |                
   |         Orbital         Occupation         Energy        |                
   |            2s              2.000           -0.881        |                
   |            2p              4.000           -0.332        |                
   |                                                          |                
   |                 Pseudopotential Definition               |                
   |        Beta     l      e      Rc     scheme   norm       |                
   |          1      0   -0.881   1.100     qc      0         |                
   |          2      0    0.250   1.100     qc      0         |                
   |          3      1   -0.332   1.100     qc      0         |                
   |          4      1    0.250   1.100     qc      0         |                
   |         loc     2    0.000   1.100     pn      0         |                
   |                                                          |                
   | Augmentation charge Rinner = 0.769                       |                
   | Partial core correction Rc = 0.769                       |                
   ------------------------------------------------------------                
   | "2|1.1|17|20|23|20:21(qc=8)"                             |                
   ------------------------------------------------------------                
   |      Author: Chris J. Pickard, Cambridge University      |                
   ============================================================                

 Atomic calculation performed for V: 1s2 2s2 2p6 3s2 3p6 3d3 4s2

 Converged in 81 iterations to an ae energy of -25823.733 eV

   ============================================================                
   | Pseudopotential Report - Date of generation 21-12-2025   |                
   ------------------------------------------------------------                
   | Element: V Ionic charge: 13.00 Level of theory: PBE      |                
   | Atomic Solver: Koelling-Harmon                           |                
   |                                                          |                
   |               Reference Electronic Structure             |                
   |         Orbital         Occupation         Energy        |                
   |            3s              2.000           -2.581        |                
   |            3p              6.000           -1.618        |                
   |            3d              3.000           -0.190        |                
   |            4s              2.000           -0.173        |                
   |                                                          |                
   |                 Pseudopotential Definition               |                
   |        Beta     l      e      Rc     scheme   norm       |                
   |          1      0   -2.581   1.803     qc      0         |                
   |          2      0   -0.173   1.803     qc      0         |                
   |          3      0    0.250   1.803     qc      0         |                
   |          4      1   -1.618   1.803     qc      0         |                
   |          5      1    0.250   1.803     qc      0         |                
   |          6      2   -0.190   1.803     qc      0         |                
   |          7      2    0.250   1.803     qc      0         |                
   |         loc     3    0.000   1.803     pn      0         |                
   |                                                          |                
   | Augmentation charge Rinner = 0.600                       |                
   | Partial core correction Rc = 0.600                       |                
   ------------------------------------------------------------                
   | "3|1.8|1.8|0.6|12|14|16|30U:40:31:32(qc=7)"              |                
   ------------------------------------------------------------                
   |      Author: Chris J. Pickard, Cambridge University      |                
   ============================================================                

 Atomic calculation performed for Fe: 1s2 2s2 2p6 3s2 3p6 3d6 4s2

 Converged in 96 iterations to an ae energy of -34625.102 eV

   ============================================================                
   | Pseudopotential Report - Date of generation 21-12-2025   |                
   ------------------------------------------------------------                
   | Element: Fe Ionic charge:  8.00 Level of theory: PBE     |                
   | Atomic Solver: Koelling-Harmon                           |                
   |                                                          |                
   |               Reference Electronic Structure             |                
   |         Orbital         Occupation         Energy        |                
   |            3d              6.000           -0.276        |                
   |            4s              2.000           -0.194        |                
   |                                                          |                
   |                 Pseudopotential Definition               |                
   |        Beta     l      e      Rc     scheme   norm       |                
   |          1      0   -0.194   2.399     qc      0         |                
   |          2      0    0.250   2.399     qc      0         |                
   |          3      1    0.000   2.399     qc      0         |                
   |          4      1    0.250   2.399     qc      0         |                
   |          5      2   -0.276   1.997     qc      0         |                
   |          6      2    0.250   1.997     qc      0         |                
   |         loc     3    0.000   2.399     pn      0         |                
   |                                                          |                
   | Augmentation charge Rinner = 1.000                       |                
   | Partial core correction Rc = 1.000                       |                
   ------------------------------------------------------------                
   | "3|2.4|2.4|1.0|8|9|10|40:41:32U2U2(qc=5.5)"              |                
   ------------------------------------------------------------                
   |      Author: Chris J. Pickard, Cambridge University      |                
   ============================================================                

 Pseudo atomic calculation performed for Li 1s2 2s1

 Converged in 18 iterations to a total energy of -200.5098 eV

 Pseudo atomic calculation performed for O 2s2 2p4

 Converged in 24 iterations to a total energy of -432.3399 eV

 Pseudo atomic calculation performed for V 3s2 3p6 3d3 4s2

 Converged in 36 iterations to a total energy of -2065.8041 eV

 Pseudo atomic calculation performed for Fe 3d6 4s2

 Converged in 34 iterations to a total energy of -853.8318 eV
 Calculation parallelised over 40 processes.
 Data is distributed by G-vector(40-way)

 ************************************ Title ************************************
 

 ***************************** General Parameters ******************************
  
 output verbosity                               : normal  (1)
 write checkpoint data to                       : ml_dos.check
 type of calculation                            : Electronic Spectroscopy
 stress calculation                             : off
 density difference calculation                 : off
 electron localisation func (ELF) calculation   : off
 Hirshfeld analysis                             : off
 polarisation (Berry phase) analysis            : off
 molecular orbital projected DOS                : off
 deltaSCF calculation                           : off
 unlimited duration calculation
 timing information                             : on
 memory usage estimate                          : on
 write extra output files                       : on
 write final potential to formatted file        : off
 write final density to formatted file          : off
 write BibTeX reference list                    : on
 write OTFG pseudopotential files               : on
 write electrostatic potential file             : on
 write bands file                               : on
 checkpoint writing                             : both castep_bin and check files
  
 output         length unit                     : A
 output           mass unit                     : amu
 output           time unit                     : ps
 output         charge unit                     : e
 output           spin unit                     : hbar/2
 output         energy unit                     : eV
 output          force unit                     : eV/A
 output       velocity unit                     : A/ps
 output       pressure unit                     : GPa
 output     inv_length unit                     : 1/A
 output      frequency unit                     : cm-1
 output force constant unit                     : eV/A**2
 output         volume unit                     : A**3
 output   IR intensity unit                     : (D/A)**2/amu
 output         dipole unit                     : D
 output         efield unit                     : eV/A/e
 output        entropy unit                     : J/mol/K
 output    efield chi2 unit                     : pm/V
  
 wavefunctions paging                           : none
 random number generator seed                   :  221235390
 data distribution                              : optimal for this architecture
 optimization strategy                          : balance speed and memory

 *********************** Exchange-Correlation Parameters ***********************
  
 using functional                               : Perdew Burke Ernzerhof
 relativistic treatment                         : Koelling-Harmon
 DFT+D: Semi-empirical dispersion correction    : off

 ************************* Pseudopotential Parameters **************************
  
 pseudopotential representation                 : reciprocal space
 <beta|phi> representation                      : reciprocal space
 spin-orbit coupling                            : off

 **************************** Basis Set Parameters *****************************
  
 plane wave basis set cut-off                   :   900.0000   eV
 size of standard grid                          :     2.0000
 size of   fine   gmax                          :    30.7390   1/A
 finite basis set correction                    : none

 **************************** Electronic Parameters ****************************
  
 number of  electrons                           :  474.0    
 net charge of system                           :  0.000    
 net spin   of system                           :  30.00    
 number of  up  spins                           :  252.0    
 number of down spins                           :  222.0    
 treating system as spin-polarized
 number of bands                                :        302
 electron temperature                           :     0.0000   K

 ********************* Electronic Minimization Parameters **********************
  
 Method: Treating system as metallic with ensemble DFT treatment of electrons,
         and number of  SD  steps               :          1
         and number of  CG  steps               :          4
  
 total energy / atom convergence tol.           : 0.1000E-05   eV
 max force / atom convergence tol.              : ignored
 convergence tolerance window                   :          3   cycles
 max. number of SCF cycles                      :        100
 number of fixed-spin iterations                :         10
 smearing scheme                                : Gaussian
 smearing width                                 : 0.2000       eV
 Fermi energy convergence tolerance             : 0.2721E-13   eV
 number of occupancy cycles                     :          6
 periodic dipole correction                     : NONE

 *********************** Population Analysis Parameters ************************
  
 Population analysis with cutoff                :  3.000       A
 Population analysis output                     : summary and pdos components
 Partial DOS weights calculated

 ********************* Electronic Spectroscopy Parameters **********************
  
 electronic spectroscopy with theory level      : DFT       
 spectroscopy calculation                       : density of states
 max. number of iterations                      :         60
 max. steps per iteration                       :          5
 number of bands / k-point                      :        389
 band convergence tolerance                     : 0.1000E-05   eV
 write orbitals file                            : off

 *******************************************************************************
  

                           -------------------------------
                                      Unit Cell
                           -------------------------------
        Real Lattice(A)                      Reciprocal Lattice(1/A)
     8.0408660     0.0000000     0.0000000        0.781406543  -0.398750186   0.045936669
     3.6548690     7.1622250     0.0000000        0.000000000   0.877267233   0.045936664
    -1.2378050    -0.7580060    14.4758840        0.000000000   0.000000000   0.434045016

                       Lattice parameters(A)       Cell Angles
                    a =      8.040866          alpha =   94.880709
                    b =      8.040867          beta  =   94.880709
                    c =     14.548469          gamma =   62.964871

                       Current cell volume =           833.673274       A**3
                                   density =             1.991174   AMU/A**3
                                           =             3.306423     g/cm^3

                           -------------------------------
                                     Cell Contents
                           -------------------------------
                         Total number of ions in cell =   66
                      Total number of species in cell =    4
                        Max number of any one species =   42

            xxxxxxxxxxxxxxxxxxxxxxxxxxxxxxxxxxxxxxxxxxxxxxxxxxxxxxxxxxxx
            x  Element    Atom        Fractional coordinates of atoms  x
            x            Number           u          v          w      x
            x----------------------------------------------------------x
            x  Li           1         0.970572   0.306542   0.719357   x 
            x  Li           2         0.306543   0.970572   0.219357   x 
            x  Li           3         0.032517   0.648511   0.035229   x 
            x  Li           4         0.648511   0.032515   0.535230   x 
            x  Li           5         0.342651   0.708339   0.371497   x 
            x  Li           6         0.708338   0.342650   0.871497   x 
            x  O            1         0.157452   0.805339   0.484091   x 
            x  O            2         0.805339   0.157451   0.984092   x 
            x  O            3         0.171899   0.477752   0.146989   x 
            x  O            4         0.477752   0.171898   0.646989   x 
            x  O            5         0.239458   0.235028   0.286044   x 
            x  O            6         0.235028   0.239456   0.786044   x 
            x  O            7         0.903673   0.884636   0.118510   x 
            x  O            8         0.884636   0.903674   0.618510   x 
            x  O            9         0.792579   0.073187   0.293755   x 
            x  O           10         0.073185   0.792580   0.793754   x 
            x  O           11         0.144196   0.463046   0.446426   x 
            x  O           12         0.463046   0.144196   0.946427   x 
            x  O           13         0.623930   0.425710   0.623881   x 
            x  O           14         0.425712   0.623928   0.123881   x 
            x  O           15         0.832786   0.419371   0.307581   x 
            x  O           16         0.419371   0.832787   0.807581   x 
            x  O           17         0.622120   0.557360   0.444030   x 
            x  O           18         0.557362   0.622120   0.944031   x 
            x  O           19         0.531356   0.806671   0.308243   x 
            x  O           20         0.806670   0.531357   0.808243   x 
            x  O           21         0.527646   0.806202   0.609221   x 
            x  O           22         0.806199   0.527648   0.109221   x 
            x  O           23         0.277476   0.070987   0.456616   x 
            x  O           24         0.070987   0.277475   0.956617   x 
            x  O           25         0.910856   0.675368   0.276903   x 
            x  O           26         0.675369   0.910853   0.776904   x 
            x  O           27         0.163268   0.840487   0.268676   x 
            x  O           28         0.840488   0.163266   0.768676   x 
            x  O           29         0.455949   0.451247   0.294854   x 
            x  O           30         0.451247   0.455949   0.794855   x 
            x  O           31         0.891951   0.185080   0.476688   x 
            x  O           32         0.185079   0.891951   0.976688   x 
            x  O           33         0.553712   0.235395   0.129312   x 
            x  O           34         0.235394   0.553713   0.629311   x 
            x  O           35         0.793323   0.775536   0.455200   x 
            x  O           36         0.775535   0.793323   0.955200   x 
            x  O           37         0.156908   0.068884   0.634773   x 
            x  O           38         0.068884   0.156908   0.134774   x 
            x  O           39         0.527862   0.218839   0.433907   x 
            x  O           40         0.218840   0.527860   0.933906   x 
            x  O           41         0.898119   0.531026   0.596251   x 
            x  O           42         0.531026   0.898117   0.096251   x 
            x  V            1         0.400608   0.441695   0.177244   x 
            x  V            2         0.441692   0.400608   0.677245   x 
            x  V            3         0.739232   0.666366   0.354933   x 
            x  V            4         0.666367   0.739235   0.854932   x 
            x  V            5         0.111655   0.033796   0.516923   x 
            x  V            6         0.033795   0.111655   0.016923   x 
            x  V            7         0.669746   0.586758   0.566959   x 
            x  V            8         0.586755   0.669745   0.066959   x 
            x  V            9         0.300494   0.252535   0.403022   x 
            x  V           10         0.252535   0.300493   0.903023   x 
            x  V           11         0.944582   0.870427   0.238988   x 
            x  V           12         0.870425   0.944582   0.738988   x 
            x  Fe           1         0.697437   0.298028   0.372593   x 
            x  Fe           2         0.298027   0.697437   0.872593   x 
            x  Fe           3         0.025889   0.673120   0.539217   x 
            x  Fe           4         0.673119   0.025888   0.039215   x 
            x  Fe           5         0.398257   0.007384   0.708886   x 
            x  Fe           6         0.007385   0.398253   0.208885   x 
            xxxxxxxxxxxxxxxxxxxxxxxxxxxxxxxxxxxxxxxxxxxxxxxxxxxxxxxxxxxx


                         No user defined ionic velocities

                           -------------------------------
                                   Details of Species
                           -------------------------------

                               Mass of species in AMU
                                    Li    6.9410000
                                    O   15.9994000
                                    V   50.9415000
                                    Fe   55.8450000

                          Electric Quadrupole Moment (Barn)
                                    Li   -0.0401000 Isotope   7
                                    O   -0.0255800 Isotope  17
                                    V   -0.0520000 Isotope  51
                                    Fe    0.1600000 Isotope  57
         xxxxxxxxxxxxxxxxxxxxxxxxxxxxxxxxxxxxxxxxxxxxxxxxxxxxxxxxxxxxxxxxxxxxxx
         |  Element    Atom         Initial            Initial magnetic       |
         |            Number    spin polarization        moment (uB)     Fix? |
         |--------------------------------------------------------------------|
         | Li             1         0.000000              0.000       F       |
         | Li             2         0.000000              0.000       F       |
         | Li             3         0.000000              0.000       F       |
         | Li             4         0.000000              0.000       F       |
         | Li             5         0.000000              0.000       F       |
         | Li             6         0.000000              0.000       F       |
         | O              1         0.000000              0.000       F       |
         | O              2         0.000000              0.000       F       |
         | O              3         0.000000              0.000       F       |
         | O              4         0.000000              0.000       F       |
         | O              5         0.000000              0.000       F       |
         | O              6         0.000000              0.000       F       |
         | O              7         0.000000              0.000       F       |
         | O              8         0.000000              0.000       F       |
         | O              9         0.000000              0.000       F       |
         | O             10         0.000000              0.000       F       |
         | O             11         0.000000              0.000       F       |
         | O             12         0.000000              0.000       F       |
         | O             13         0.000000              0.000       F       |
         | O             14         0.000000              0.000       F       |
         | O             15         0.000000              0.000       F       |
         | O             16         0.000000              0.000       F       |
         | O             17         0.000000              0.000       F       |
         | O             18         0.000000              0.000       F       |
         | O             19         0.000000              0.000       F       |
         | O             20         0.000000              0.000       F       |
         | O             21         0.000000              0.000       F       |
         | O             22         0.000000              0.000       F       |
         | O             23         0.000000              0.000       F       |
         | O             24         0.000000              0.000       F       |
         | O             25         0.000000              0.000       F       |
         | O             26         0.000000              0.000       F       |
         | O             27         0.000000              0.000       F       |
         | O             28         0.000000              0.000       F       |
         | O             29         0.000000              0.000       F       |
         | O             30         0.000000              0.000       F       |
         | O             31         0.000000              0.000       F       |
         | O             32         0.000000              0.000       F       |
         | O             33         0.000000              0.000       F       |
         | O             34         0.000000              0.000       F       |
         | O             35         0.000000              0.000       F       |
         | O             36         0.000000              0.000       F       |
         | O             37         0.000000              0.000       F       |
         | O             38         0.000000              0.000       F       |
         | O             39         0.000000              0.000       F       |
         | O             40         0.000000              0.000       F       |
         | O             41         0.000000              0.000       F       |
         | O             42         0.000000              0.000       F       |
         | V              1         0.000000              0.000       F       |
         | V              2         0.000000              0.000       F       |
         | V              3         0.000000              0.000       F       |
         | V              4         0.000000              0.000       F       |
         | V              5         0.000000              0.000       F       |
         | V              6         0.000000              0.000       F       |
         | V              7         0.000000              0.000       F       |
         | V              8         0.000000              0.000       F       |
         | V              9         0.000000              0.000       F       |
         | V             10         0.000000              0.000       F       |
         | V             11         0.000000              0.000       F       |
         | V             12         0.000000              0.000       F       |
         | Fe             1         0.625000              5.000       F       |
         | Fe             2         0.625000              5.000       F       |
         | Fe             3         0.625000              5.000       F       |
         | Fe             4         0.625000              5.000       F       |
         | Fe             5         0.625000              5.000       F       |
         | Fe             6         0.625000              5.000       F       |
         xxxxxxxxxxxxxxxxxxxxxxxxxxxxxxxxxxxxxxxxxxxxxxxxxxxxxxxxxxxxxxxxxxxxxx



         Quantisation axis:    0.00000   0.00000   1.00000

         Units for Hubbard U values are eV
         xxxxxxxxxxxxxxxxxxxxxxxxxxxxxxxxxxxxxxxxxxxxxxxxxxxxxxxxxxxxxxxxxxxx
         |  Element     Atom     Hubbard U   values by orbital type         |
         |             Number      s          p          d          f       |
         |------------------------------------------------------------------|
         |Li            1         0.00000    0.00000    0.00000    0.00000  |
         |Li            2         0.00000    0.00000    0.00000    0.00000  |
         |Li            3         0.00000    0.00000    0.00000    0.00000  |
         |Li            4         0.00000    0.00000    0.00000    0.00000  |
         |Li            5         0.00000    0.00000    0.00000    0.00000  |
         |Li            6         0.00000    0.00000    0.00000    0.00000  |
         |O             1         0.00000    0.00000    0.00000    0.00000  |
         |O             2         0.00000    0.00000    0.00000    0.00000  |
         |O             3         0.00000    0.00000    0.00000    0.00000  |
         |O             4         0.00000    0.00000    0.00000    0.00000  |
         |O             5         0.00000    0.00000    0.00000    0.00000  |
         |O             6         0.00000    0.00000    0.00000    0.00000  |
         |O             7         0.00000    0.00000    0.00000    0.00000  |
         |O             8         0.00000    0.00000    0.00000    0.00000  |
         |O             9         0.00000    0.00000    0.00000    0.00000  |
         |O            10         0.00000    0.00000    0.00000    0.00000  |
         |O            11         0.00000    0.00000    0.00000    0.00000  |
         |O            12         0.00000    0.00000    0.00000    0.00000  |
         |O            13         0.00000    0.00000    0.00000    0.00000  |
         |O            14         0.00000    0.00000    0.00000    0.00000  |
         |O            15         0.00000    0.00000    0.00000    0.00000  |
         |O            16         0.00000    0.00000    0.00000    0.00000  |
         |O            17         0.00000    0.00000    0.00000    0.00000  |
         |O            18         0.00000    0.00000    0.00000    0.00000  |
         |O            19         0.00000    0.00000    0.00000    0.00000  |
         |O            20         0.00000    0.00000    0.00000    0.00000  |
         |O            21         0.00000    0.00000    0.00000    0.00000  |
         |O            22         0.00000    0.00000    0.00000    0.00000  |
         |O            23         0.00000    0.00000    0.00000    0.00000  |
         |O            24         0.00000    0.00000    0.00000    0.00000  |
         |O            25         0.00000    0.00000    0.00000    0.00000  |
         |O            26         0.00000    0.00000    0.00000    0.00000  |
         |O            27         0.00000    0.00000    0.00000    0.00000  |
         |O            28         0.00000    0.00000    0.00000    0.00000  |
         |O            29         0.00000    0.00000    0.00000    0.00000  |
         |O            30         0.00000    0.00000    0.00000    0.00000  |
         |O            31         0.00000    0.00000    0.00000    0.00000  |
         |O            32         0.00000    0.00000    0.00000    0.00000  |
         |O            33         0.00000    0.00000    0.00000    0.00000  |
         |O            34         0.00000    0.00000    0.00000    0.00000  |
         |O            35         0.00000    0.00000    0.00000    0.00000  |
         |O            36         0.00000    0.00000    0.00000    0.00000  |
         |O            37         0.00000    0.00000    0.00000    0.00000  |
         |O            38         0.00000    0.00000    0.00000    0.00000  |
         |O            39         0.00000    0.00000    0.00000    0.00000  |
         |O            40         0.00000    0.00000    0.00000    0.00000  |
         |O            41         0.00000    0.00000    0.00000    0.00000  |
         |O            42         0.00000    0.00000    0.00000    0.00000  |
         |V             1         0.00000    0.00000    3.25000    0.00000  |
         |V             2         0.00000    0.00000    3.25000    0.00000  |
         |V             3         0.00000    0.00000    3.25000    0.00000  |
         |V             4         0.00000    0.00000    3.25000    0.00000  |
         |V             5         0.00000    0.00000    3.25000    0.00000  |
         |V             6         0.00000    0.00000    3.25000    0.00000  |
         |V             7         0.00000    0.00000    3.25000    0.00000  |
         |V             8         0.00000    0.00000    3.25000    0.00000  |
         |V             9         0.00000    0.00000    3.25000    0.00000  |
         |V            10         0.00000    0.00000    3.25000    0.00000  |
         |V            11         0.00000    0.00000    3.25000    0.00000  |
         |V            12         0.00000    0.00000    3.25000    0.00000  |
         |Fe            1         0.00000    0.00000    5.30000    0.00000  |
         |Fe            2         0.00000    0.00000    5.30000    0.00000  |
         |Fe            3         0.00000    0.00000    5.30000    0.00000  |
         |Fe            4         0.00000    0.00000    5.30000    0.00000  |
         |Fe            5         0.00000    0.00000    5.30000    0.00000  |
         |Fe            6         0.00000    0.00000    5.30000    0.00000  |
         xxxxxxxxxxxxxxxxxxxxxxxxxxxxxxxxxxxxxxxxxxxxxxxxxxxxxxxxxxxxxxxxxxxx


                          Files used for pseudopotentials:
                                    Li 1|1.0|14|16|18|10U:20(qc=7)
                                    O 2|1.1|17|20|23|20:21(qc=8)
                                    V 3|1.8|1.8|0.6|12|14|16|30U:40:31:32(qc=7)
                                    Fe 3|2.4|2.4|1.0|8|9|10|40:41:32U2U2(qc=5.5)

                           -------------------------------
                              k-Points For BZ Sampling
                           -------------------------------
                       MP grid size for SCF calculation is  3  3  2
                            with an offset of   0.000  0.000  0.000
                       Number of kpoints used =             9

                           -------------------------------
                               Symmetry and Constraints
                           -------------------------------

                      Maximum deviation from symmetry =  0.00000         ANG

                      Number of symmetry operations   =           1
                      Number of ionic constraints     =           3
                      Point group of crystal =     1: C1, 1, 1
                      Space group of crystal =     9: Cc, C -2yc

             Set iprint > 1 for details on symmetry rotations/translations

                         Centre of mass is constrained
             Set iprint > 2 for details of linear ionic constraints

                         Number of cell constraints= 0
                         Cell constraints are:  1 2 3 4 5 6

                         External pressure/stress (GPa)
                          0.00000   0.00000   0.00000
                                    0.00000   0.00000
                                              0.00000
 
+---------------- MEMORY AND SCRATCH DISK ESTIMATES PER PROCESS --------------+
|                                                     Memory          Disk    |
| Baseline code, static data and system overhead      817.0 MB         0.0 MB |
| BLAS internal memory storage                          0.0 MB         0.0 MB |
| Model and support data                              556.9 MB         0.0 MB |
| Electronic energy minimisation requirements         677.8 MB         0.0 MB |
| Force calculation requirements                        6.4 MB         0.0 MB |
|                                               ----------------------------- |
| Approx. total storage required per process         2051.7 MB         0.0 MB |
|                                                                             |
| Requirements will fluctuate during execution and may exceed these estimates |
+-----------------------------------------------------------------------------+
Calculating approximate eigenstates for fixed initial Hamiltonian
Cut-off for approx. calculation is  605.395 eV
Resetting cut-off to  900.000 eV
Improving states further at cut-off of  900.000 eV
Calculating total energy with cut-off of  900.000 eV.

 Pseudo atomic calculation performed for Li 1s2 2s1

 Converged in 18 iterations to a total energy of -200.5098 eV

 Pseudo atomic calculation performed for O 2s2 2p4

 Converged in 24 iterations to a total energy of -432.3399 eV

 Pseudo atomic calculation performed for V 3s2 3p6 3d3 4s2

 Converged in 36 iterations to a total energy of -2065.8041 eV

 Pseudo atomic calculation performed for Fe 3d6 4s2

 Converged in 34 iterations to a total energy of -853.8318 eV
------------------------------------------------------------------------ <-- SCF
SCF loop      Energy           Fermi           Energy gain       Timer   <-- SCF
                               energy          per atom          (sec)   <-- SCF
------------------------------------------------------------------------ <-- SCF
Initial  -4.72730293E+004  4.72720297E+000                       212.60  <-- SCF
      1  -4.96835575E+004  3.61190107E+000   3.65231544E+001     741.68  <-- SCF
      2  -4.97775845E+004  2.54081341E+000   1.42465048E+000    1188.69  <-- SCF
      3  -4.97816103E+004  2.50104955E+000   6.09971684E-002    1575.56  <-- SCF
      4  -4.97818083E+004  2.50831500E+000   2.99957633E-003    1908.24  <-- SCF
      5  -4.97818100E+004  2.51320152E+000   2.64268509E-005    2260.96  <-- SCF
      6  -4.97818142E+004  2.51773042E+000   6.37424619E-005    2608.93  <-- SCF
      7  -4.97818149E+004  2.52098787E+000   1.00521057E-005    2955.22  <-- SCF
      8  -4.97818152E+004  2.52370259E+000   5.39523614E-006    3300.36  <-- SCF
      9  -4.97818152E+004  2.52370259E+000   0.00000000E+000    3650.58  <-- SCF
     10  -4.97294300E+004  2.60723856E+000  -7.93715515E-001    4058.68  <-- SCF
     11  -4.97306351E+004  2.46730598E+000   1.82588469E-002    4416.64  <-- SCF
     12  -4.97308604E+004  2.50472833E+000   3.41427571E-003    4731.92  <-- SCF
     13  -4.97308745E+004  2.50151079E+000   2.12775585E-004    4995.29  <-- SCF
     14  -4.97308760E+004  2.50322604E+000   2.34867426E-005    5270.83  <-- SCF
     15  -4.97308762E+004  2.50271412E+000   3.24770593E-006    5560.14  <-- SCF
     16  -4.97308763E+004  2.50283355E+000   5.40223568E-007    5819.17  <-- SCF
     17  -4.97308763E+004  2.50275078E+000   9.55716384E-008    6098.16  <-- SCF
------------------------------------------------------------------------ <-- SCF
 
Integrated Spin Density     =     30.0000     hbar/2
Integrated |Spin Density|   =     30.0904     hbar/2
 

     Hubbard U occupation numbers
     ----------------------------
Species   Ion   l  spin               occupancies
==================================================================
  V        1    2   up:   0.42  0.44  0.47  0.51  0.53
                    dn:   0.38  0.42  0.45  0.49  0.49
  V        2    2   up:   0.42  0.44  0.47  0.51  0.53
                    dn:   0.38  0.42  0.45  0.49  0.49
  V        3    2   up:   0.34  0.42  0.51  0.52  0.54
                    dn:   0.30  0.41  0.50  0.51  0.52
  V        4    2   up:   0.34  0.42  0.51  0.52  0.54
                    dn:   0.30  0.41  0.50  0.51  0.52
  V        5    2   up:   0.42  0.44  0.48  0.52  0.52
                    dn:   0.36  0.41  0.46  0.48  0.51
  V        6    2   up:   0.42  0.44  0.48  0.52  0.52
                    dn:   0.36  0.41  0.46  0.48  0.51
  V        7    2   up:   0.41  0.44  0.48  0.51  0.52
                    dn:   0.39  0.39  0.46  0.49  0.51
  V        8    2   up:   0.41  0.44  0.48  0.51  0.52
                    dn:   0.39  0.39  0.46  0.49  0.51
  V        9    2   up:   0.42  0.43  0.48  0.51  0.53
                    dn:   0.38  0.42  0.45  0.49  0.50
  V       10    2   up:   0.42  0.43  0.48  0.51  0.53
                    dn:   0.38  0.42  0.45  0.49  0.50
  V       11    2   up:   0.42  0.43  0.47  0.51  0.52
                    dn:   0.39  0.41  0.45  0.49  0.51
  V       12    2   up:   0.42  0.43  0.47  0.51  0.52
                    dn:   0.39  0.41  0.45  0.49  0.51
  Fe       1    2   up:   0.99  0.99  1.00  1.00  1.00
                    dn:   0.10  0.11  0.12  0.38  0.39
  Fe       2    2   up:   0.99  0.99  1.00  1.00  1.00
                    dn:   0.10  0.11  0.12  0.38  0.39
  Fe       3    2   up:   0.99  0.99  1.00  1.00  1.00
                    dn:   0.10  0.11  0.12  0.38  0.41
  Fe       4    2   up:   0.99  0.99  1.00  1.00  1.00
                    dn:   0.10  0.11  0.12  0.38  0.41
  Fe       5    2   up:   0.99  0.99  1.00  1.00  1.00
                    dn:   0.09  0.11  0.13  0.37  0.40
  Fe       6    2   up:   0.99  0.99  1.00  1.00  1.00
                    dn:   0.09  0.11  0.13  0.37  0.40
==================================================================

Final energy, E             =  -49730.87627460     eV
Final free energy (E-TS)    =  -49730.87627460     eV
(energies not corrected for finite basis set)
 
NB est. 0K energy (E-0.5TS)      =  -49730.87627460     eV
 

Writing analysis data to ml_dos.castep_bin

Writing model to ml_dos.check
 
+---------------- MEMORY AND SCRATCH DISK ESTIMATES PER PROCESS --------------+
|                                                     Memory          Disk    |
|                                               ----------------------------- |
| Approx. total storage required per process         1608.7 MB         0.0 MB |
|                                                                             |
| Requirements will fluctuate during execution and may exceed these estimates |
+-----------------------------------------------------------------------------+
 
  =====================================================================
  +                                                                   +
  +                 Calculation of Spectral Properties                +
  +                                                                   +
  + Calculation re-parallelised over 36 processes.                    +
  + There are 9 k-points distributed across 9 k-point groups.         +
  + Data distributed by G-vector(4-way), k-point(9-way), band(1-way)  +
  + Data distributed by G-vector(4-way), k-point(9-way)               +
  +                                                                   +
  =====================================================================

 Pseudo atomic calculation performed for Li 1s2 2s1

 Converged in 18 iterations to a total energy of -200.5098 eV

 Pseudo atomic calculation performed for O 2s2 2p4

 Converged in 24 iterations to a total energy of -432.3399 eV

 Pseudo atomic calculation performed for V 3s2 3p6 3d3 4s2

 Converged in 36 iterations to a total energy of -2065.8041 eV

 Pseudo atomic calculation performed for Fe 3d6 4s2

 Converged in 34 iterations to a total energy of -853.8318 eV

 Pseudo atomic calculation performed for Li 1s2 2s1

 Converged in 18 iterations to a total energy of -200.5098 eV

 Pseudo atomic calculation performed for O 2s2 2p4

 Converged in 24 iterations to a total energy of -432.3399 eV

 Pseudo atomic calculation performed for V 3s2 3p6 3d3 4s2

 Converged in 36 iterations to a total energy of -2065.8041 eV

 Pseudo atomic calculation performed for Fe 3d6 4s2

 Converged in 34 iterations to a total energy of -853.8318 eV
  Starting k-point:        1 of        1 Time:      0.00 sec  |<-- SPEC

 Pseudo atomic calculation performed for Li 1s2 2s1

 Converged in 18 iterations to a total energy of -200.5098 eV

 Pseudo atomic calculation performed for O 2s2 2p4

 Converged in 24 iterations to a total energy of -432.3399 eV

 Pseudo atomic calculation performed for V 3s2 3p6 3d3 4s2

 Converged in 36 iterations to a total energy of -2065.8041 eV

 Pseudo atomic calculation performed for Fe 3d6 4s2

 Converged in 34 iterations to a total energy of -853.8318 eV
  Starting k-point:        1 of        1 Time:    256.46 sec  |<-- SPEC

 Pseudo atomic calculation performed for Li 1s2 2s1

 Converged in 18 iterations to a total energy of -200.5098 eV

 Pseudo atomic calculation performed for O 2s2 2p4

 Converged in 24 iterations to a total energy of -432.3399 eV

 Pseudo atomic calculation performed for V 3s2 3p6 3d3 4s2

 Converged in 36 iterations to a total energy of -2065.8041 eV

 Pseudo atomic calculation performed for Fe 3d6 4s2

 Converged in 34 iterations to a total energy of -853.8318 eV
  Check-pointing spectral run                                 |<-- SPEC
  Total time to compute matrix elements            519.67 sec |<-- SPEC
  
  + Calculation re-parallelised over 40 processes.                    +
  + Data distributed by G-vector(40-way)                              +

 Pseudo atomic calculation performed for Li 1s2 2s1

 Converged in 18 iterations to a total energy of -200.5098 eV

 Pseudo atomic calculation performed for O 2s2 2p4

 Converged in 24 iterations to a total energy of -432.3399 eV

 Pseudo atomic calculation performed for V 3s2 3p6 3d3 4s2

 Converged in 36 iterations to a total energy of -2065.8041 eV

 Pseudo atomic calculation performed for Fe 3d6 4s2

 Converged in 34 iterations to a total energy of -853.8318 eV

 ************************** Forces **************************
 *                                                          *
 *               Cartesian components (eV/A)                *
 * -------------------------------------------------------- *
 *                         x            y            z      *
 *                                                          *
 * Li              1      0.01064     -0.06140      0.02371 *
 * Li              2     -0.04984      0.03737      0.02373 *
 * Li              3     -0.06355      0.05923     -0.02878 *
 * Li              4      0.02387     -0.08345     -0.02893 *
 * Li              5     -0.01664     -0.02678     -0.02941 *
 * Li              6     -0.03137     -0.00258     -0.02937 *
 * O               1      0.20461      0.56411      0.16477 *
 * O               2      0.59543     -0.07404      0.16457 *
 * O               3      0.77892     -0.00210      0.09110 *
 * O               4      0.35225      0.69492      0.09125 *
 * O               5      0.24996     -0.15343      0.75319 *
 * O               6     -0.02295      0.29249      0.75356 *
 * O               7      0.10687     -0.19371      0.65835 *
 * O               8     -0.12405      0.18325      0.65847 *
 * O               9      0.14570     -0.97013     -0.62532 *
 * O              10     -0.79772      0.57050     -0.62513 *
 * O              11      0.28523     -0.94527     -0.46446 *
 * O              12     -0.71240      0.68377     -0.46464 *
 * O              13     -0.01680      0.31137     -0.08371 *
 * O              14      0.26942     -0.15607     -0.08376 *
 * O              15     -0.07974      0.32335      0.20435 *
 * O              16      0.25166     -0.21808      0.20444 *
 * O              17      0.08438      0.18288      0.31252 *
 * O              18      0.20092     -0.00797      0.31206 *
 * O              19      0.63797     -0.57397      0.40416 *
 * O              20     -0.22120      0.82908      0.40412 *
 * O              21      0.20243     -0.82504     -0.49482 *
 * O              22     -0.64272      0.55505     -0.49474 *
 * O              23     -0.21039      0.16977      0.10674 *
 * O              24      0.05570     -0.26441      0.10661 *
 * O              25      0.10640      0.24728     -0.00115 *
 * O              26      0.26873     -0.01718     -0.00146 *
 * O              27     -0.77202      0.03164     -0.21839 *
 * O              28     -0.32277     -0.70182     -0.21827 *
 * O              29     -0.18519      0.10636     -0.77393 *
 * O              30      0.01050     -0.21332     -0.77405 *
 * O              31      0.61302     -0.58119      0.46277 *
 * O              32     -0.23903      0.81010      0.46268 *
 * O              33     -0.28636      1.03024      0.64111 *
 * O              34      0.78770     -0.72361      0.64152 *
 * O              35     -0.39006     -0.01815     -0.53865 *
 * O              36     -0.19325     -0.33916     -0.53872 *
 * O              37     -0.30702      0.17192     -0.64375 *
 * O              38      0.01349     -0.35179     -0.64417 *
 * O              39     -0.71387     -0.01873     -0.11944 *
 * O              40     -0.34117     -0.62716     -0.11931 *
 * O              41     -0.73100      0.15558     -0.15509 *
 * O              42     -0.19369     -0.72160     -0.15514 *
 * V               1      0.03322     -0.42310      0.05556 *
 * V               2     -0.36085      0.22208      0.05513 *
 * V               3     -0.28394      0.71971     -0.05914 *
 * V               4      0.51143     -0.58071     -0.05864 *
 * V               5     -0.21885      0.05188     -0.20766 *
 * V               6     -0.05319     -0.21863     -0.20709 *
 * V               7      0.06821      0.14542      0.52186 *
 * V               8      0.16141     -0.00503      0.52189 *
 * V               9      0.04970      0.49100     -0.09821 *
 * V              10      0.45969     -0.17907     -0.09888 *
 * V              11      0.42291      0.66776      0.05077 *
 * V              12      0.78737      0.07310      0.05051 *
 * Fe              1      0.05373      0.03484     -0.01231 *
 * Fe              2      0.05571      0.03213     -0.01228 *
 * Fe              3     -0.09611      0.05337      0.03967 *
 * Fe              4      0.00385     -0.10986      0.04051 *
 * Fe              5     -0.06907     -0.09535      0.06346 *
 * Fe              6     -0.11620     -0.01763      0.06366 *
 *                                                          *
 ************************************************************

 Pseudo atomic calculation performed for Li 1s2 2s1

 Converged in 18 iterations to a total energy of -200.5098 eV

 Pseudo atomic calculation performed for O 2s2 2p4

 Converged in 24 iterations to a total energy of -432.3399 eV

 Pseudo atomic calculation performed for V 3s2 3p6 3d3 4s2

 Converged in 36 iterations to a total energy of -2065.8041 eV

 Pseudo atomic calculation performed for Fe 3d6 4s2

 Converged in 34 iterations to a total energy of -853.8318 eV
Charge spilling parameter for spin component 1 = 0.18%
Charge spilling parameter for spin component 2 = 0.15%

                   Orbital Populations                  
  ---------------------------------------------------------------
     Ion    Atom   Orbital              Up        Down      Spin
  ---------------------------------------------------------------
     Li     1      S                    1.000     1.000     0.000
     Li     1      S                    0.014     0.017    -0.003
     Li     1      Px                   0.035     0.037    -0.002
     Li     1      Py                   0.033     0.036    -0.003
     Li     1      Pz                   0.028     0.029    -0.001
     Li     2      S                    1.000     1.000     0.000
     Li     2      S                    0.014     0.017    -0.003
     Li     2      Px                   0.033     0.034    -0.002
     Li     2      Py                   0.035     0.039    -0.003
     Li     2      Pz                   0.028     0.029    -0.001
     Li     3      S                    1.000     1.000     0.000
     Li     3      S                    0.004     0.009    -0.005
     Li     3      Px                   0.024     0.027    -0.003
     Li     3      Py                   0.029     0.033    -0.004
     Li     3      Pz                   0.035     0.039    -0.004
     Li     4      S                    1.000     1.000     0.000
     Li     4      S                    0.004     0.009    -0.005
     Li     4      Px                   0.018     0.021    -0.003
     Li     4      Py                   0.036     0.039    -0.004
     Li     4      Pz                   0.035     0.039    -0.004
     Li     5      S                    1.000     1.000     0.000
     Li     5      S                    0.006     0.009    -0.003
     Li     5      Px                   0.024     0.026    -0.002
     Li     5      Py                   0.032     0.035    -0.003
     Li     5      Pz                   0.042     0.044    -0.002
     Li     6      S                    1.000     1.000     0.000
     Li     6      S                    0.006     0.009    -0.003
     Li     6      Px                   0.023     0.025    -0.002
     Li     6      Py                   0.033     0.036    -0.003
     Li     6      Pz                   0.042     0.044    -0.002
      O     1      S                    0.944     0.936     0.008
      O     1      Px                   0.824     0.786     0.038
      O     1      Py                   0.772     0.755     0.017
      O     1      Pz                   0.831     0.811     0.021
      O     2      S                    0.944     0.936     0.008
      O     2      Px                   0.765     0.734     0.031
      O     2      Py                   0.830     0.807     0.023
      O     2      Pz                   0.831     0.811     0.021
      O     3      S                    0.941     0.932     0.009
      O     3      Px                   0.770     0.732     0.038
      O     3      Py                   0.837     0.815     0.022
      O     3      Pz                   0.841     0.813     0.027
      O     4      S                    0.941     0.932     0.009
      O     4      Px                   0.830     0.792     0.037
      O     4      Py                   0.777     0.755     0.023
      O     4      Pz                   0.841     0.813     0.027
      O     5      S                    0.943     0.935     0.009
      O     5      Px                   0.831     0.801     0.030
      O     5      Py                   0.836     0.802     0.035
      O     5      Pz                   0.774     0.754     0.020
      O     6      S                    0.943     0.935     0.009
      O     6      Px                   0.832     0.815     0.016
      O     6      Py                   0.835     0.787     0.048
      O     6      Pz                   0.774     0.754     0.020
      O     7      S                    0.940     0.931     0.010
      O     7      Px                   0.847     0.805     0.042
      O     7      Py                   0.842     0.803     0.039
      O     7      Pz                   0.772     0.754     0.018
      O     8      S                    0.940     0.931     0.010
      O     8      Px                   0.842     0.818     0.024
      O     8      Py                   0.847     0.789     0.057
      O     8      Pz                   0.772     0.754     0.018
      O     9      S                    0.940     0.928     0.013
      O     9      Px                   0.829     0.808     0.021
      O     9      Py                   0.783     0.747     0.037
      O     9      Pz                   0.813     0.777     0.036
      O    10      S                    0.940     0.928     0.013
      O    10      Px                   0.805     0.769     0.036
      O    10      Py                   0.807     0.786     0.021
      O    10      Pz                   0.813     0.777     0.036
      O    11      S                    0.940     0.929     0.012
      O    11      Px                   0.818     0.807     0.011
      O    11      Py                   0.772     0.750     0.022
      O    11      Pz                   0.807     0.783     0.024
      O    12      S                    0.940     0.929     0.012
      O    12      Px                   0.794     0.776     0.018
      O    12      Py                   0.796     0.781     0.015
      O    12      Pz                   0.807     0.783     0.024
      O    13      S                    0.928     0.928    -0.001
      O    13      Px                   0.771     0.772    -0.001
      O    13      Py                   0.806     0.804     0.002
      O    13      Pz                   0.808     0.806     0.001
      O    14      S                    0.928     0.928    -0.001
      O    14      Px                   0.773     0.774    -0.001
      O    14      Py                   0.804     0.802     0.002
      O    14      Pz                   0.808     0.806     0.001
      O    15      S                    0.944     0.927     0.017
      O    15      Px                   0.867     0.780     0.087
      O    15      Py                   0.803     0.761     0.042
      O    15      Pz                   0.858     0.787     0.071
      O    16      S                    0.944     0.927     0.017
      O    16      Px                   0.806     0.747     0.060
      O    16      Py                   0.864     0.794     0.069
      O    16      Pz                   0.858     0.787     0.071
      O    17      S                    0.939     0.931     0.007
      O    17      Px                   0.835     0.827     0.008
      O    17      Py                   0.847     0.805     0.042
      O    17      Pz                   0.771     0.760     0.011
      O    18      S                    0.939     0.931     0.007
      O    18      Px                   0.826     0.792     0.034
      O    18      Py                   0.856     0.840     0.016
      O    18      Pz                   0.771     0.760     0.011
      O    19      S                    0.943     0.944    -0.000
      O    19      Px                   0.760     0.760    -0.001
      O    19      Py                   0.779     0.776     0.003
      O    19      Pz                   0.784     0.783     0.001
      O    20      S                    0.943     0.944    -0.000
      O    20      Px                   0.789     0.788     0.001
      O    20      Py                   0.749     0.748     0.001
      O    20      Pz                   0.784     0.783     0.001
      O    21      S                    0.940     0.930     0.010
      O    21      Px                   0.824     0.812     0.011
      O    21      Py                   0.768     0.751     0.017
      O    21      Pz                   0.804     0.782     0.022
      O    22      S                    0.940     0.930     0.010
      O    22      Px                   0.792     0.777     0.015
      O    22      Py                   0.799     0.786     0.013
      O    22      Pz                   0.804     0.782     0.022
      O    23      S                    0.927     0.928    -0.001
      O    23      Px                   0.779     0.779    -0.000
      O    23      Py                   0.801     0.800     0.001
      O    23      Pz                   0.811     0.808     0.003
      O    24      S                    0.927     0.928    -0.001
      O    24      Px                   0.772     0.773    -0.001
      O    24      Py                   0.808     0.806     0.002
      O    24      Pz                   0.811     0.808     0.003
      O    25      S                    0.932     0.925     0.007
      O    25      Px                   0.801     0.796     0.005
      O    25      Py                   0.818     0.777     0.041
      O    25      Pz                   0.830     0.811     0.019
      O    26      S                    0.932     0.925     0.007
      O    26      Px                   0.789     0.755     0.034
      O    26      Py                   0.830     0.818     0.012
      O    26      Pz                   0.830     0.811     0.019
      O    27      S                    0.941     0.941     0.000
      O    27      Px                   0.755     0.753     0.001
      O    27      Py                   0.807     0.798     0.009
      O    27      Pz                   0.812     0.807     0.005
      O    28      S                    0.941     0.941     0.000
      O    28      Px                   0.806     0.797     0.008
      O    28      Py                   0.756     0.753     0.002
      O    28      Pz                   0.812     0.807     0.005
      O    29      S                    0.942     0.934     0.008
      O    29      Px                   0.827     0.796     0.030
      O    29      Py                   0.836     0.804     0.032
      O    29      Pz                   0.768     0.752     0.016
      O    30      S                    0.942     0.934     0.008
      O    30      Px                   0.828     0.815     0.013
      O    30      Py                   0.835     0.785     0.050
      O    30      Pz                   0.768     0.752     0.016
      O    31      S                    0.941     0.931     0.010
      O    31      Px                   0.795     0.778     0.016
      O    31      Py                   0.800     0.787     0.013
      O    31      Pz                   0.811     0.783     0.028
      O    32      S                    0.941     0.931     0.010
      O    32      Px                   0.821     0.809     0.012
      O    32      Py                   0.773     0.756     0.018
      O    32      Pz                   0.811     0.783     0.028
      O    33      S                    0.942     0.930     0.012
      O    33      Px                   0.814     0.801     0.012
      O    33      Py                   0.772     0.750     0.023
      O    33      Pz                   0.805     0.780     0.025
      O    34      S                    0.942     0.930     0.012
      O    34      Px                   0.791     0.773     0.019
      O    34      Py                   0.795     0.778     0.016
      O    34      Pz                   0.805     0.780     0.025
      O    35      S                    0.941     0.932     0.009
      O    35      Px                   0.807     0.779     0.028
      O    35      Py                   0.840     0.808     0.032
      O    35      Pz                   0.795     0.766     0.029
      O    36      S                    0.941     0.932     0.009
      O    36      Px                   0.812     0.799     0.014
      O    36      Py                   0.835     0.788     0.046
      O    36      Pz                   0.795     0.766     0.029
      O    37      S                    0.943     0.934     0.009
      O    37      Px                   0.820     0.775     0.045
      O    37      Py                   0.848     0.823     0.025
      O    37      Pz                   0.773     0.755     0.018
      O    38      S                    0.943     0.934     0.009
      O    38      Px                   0.838     0.819     0.019
      O    38      Py                   0.830     0.780     0.050
      O    38      Pz                   0.773     0.755     0.018
      O    39      S                    0.942     0.933     0.009
      O    39      Px                   0.769     0.732     0.036
      O    39      Py                   0.836     0.817     0.019
      O    39      Pz                   0.837     0.811     0.025
      O    40      S                    0.942     0.933     0.009
      O    40      Px                   0.829     0.798     0.031
      O    40      Py                   0.776     0.751     0.024
      O    40      Pz                   0.837     0.811     0.025
      O    41      S                    0.946     0.939     0.007
      O    41      Px                   0.754     0.730     0.024
      O    41      Py                   0.818     0.797     0.021
      O    41      Pz                   0.812     0.802     0.011
      O    42      S                    0.946     0.939     0.007
      O    42      Px                   0.817     0.782     0.035
      O    42      Py                   0.755     0.745     0.010
      O    42      Pz                   0.812     0.802     0.011
      V     1      S                    0.995     0.995     0.000
      V     1      Px                   0.995     0.995     0.000
      V     1      Py                   0.995     0.995     0.000
      V     1      Pz                   0.995     0.995     0.000
      V     1      Dzz                  0.353     0.321     0.031
      V     1      Dzy                  0.325     0.304     0.021
      V     1      Dzx                  0.323     0.298     0.025
      V     1      Dxx-yy               0.330     0.305     0.025
      V     1      Dxy                  0.324     0.292     0.032
      V     1      S                    0.092     0.091     0.001
      V     1      Px                   0.064     0.066    -0.002
      V     1      Py                   0.076     0.075     0.001
      V     1      Pz                   0.073     0.071     0.002
      V     2      S                    0.995     0.995     0.000
      V     2      Px                   0.996     0.996    -0.000
      V     2      Py                   0.995     0.995     0.000
      V     2      Pz                   0.995     0.995     0.000
      V     2      Dzz                  0.353     0.321     0.031
      V     2      Dzy                  0.330     0.299     0.032
      V     2      Dzx                  0.318     0.304     0.014
      V     2      Dxx-yy               0.328     0.308     0.020
      V     2      Dxy                  0.326     0.289     0.038
      V     2      S                    0.092     0.091     0.001
      V     2      Px                   0.078     0.077     0.001
      V     2      Py                   0.062     0.064    -0.001
      V     2      Pz                   0.073     0.071     0.002
      V     3      S                    0.995     0.995    -0.000
      V     3      Px                   0.995     0.995    -0.000
      V     3      Py                   0.995     0.995     0.000
      V     3      Pz                   0.995     0.995     0.000
      V     3      Dzz                  0.304     0.291     0.013
      V     3      Dzy                  0.327     0.300     0.027
      V     3      Dzx                  0.341     0.336     0.005
      V     3      Dxx-yy               0.336     0.326     0.010
      V     3      Dxy                  0.300     0.284     0.017
      V     3      S                    0.111     0.114    -0.003
      V     3      Px                   0.085     0.088    -0.003
      V     3      Py                   0.063     0.064    -0.001
      V     3      Pz                   0.076     0.080    -0.004
      V     4      S                    0.995     0.995    -0.000
      V     4      Px                   0.996     0.996     0.000
      V     4      Py                   0.995     0.994     0.000
      V     4      Pz                   0.995     0.995     0.000
      V     4      Dzz                  0.304     0.291     0.013
      V     4      Dzy                  0.334     0.324     0.010
      V     4      Dzx                  0.335     0.313     0.022
      V     4      Dxx-yy               0.299     0.286     0.013
      V     4      Dxy                  0.337     0.324     0.013
      V     4      S                    0.111     0.114    -0.003
      V     4      Px                   0.068     0.071    -0.003
      V     4      Py                   0.080     0.081    -0.001
      V     4      Pz                   0.076     0.080    -0.004
      V     5      S                    0.996     0.996     0.000
      V     5      Px                   0.995     0.995     0.000
      V     5      Py                   0.995     0.995     0.000
      V     5      Pz                   0.995     0.995     0.000
      V     5      Dzz                  0.347     0.310     0.037
      V     5      Dzy                  0.330     0.297     0.033
      V     5      Dzx                  0.322     0.305     0.017
      V     5      Dxx-yy               0.332     0.314     0.017
      V     5      Dxy                  0.328     0.287     0.041
      V     5      S                    0.095     0.094     0.002
      V     5      Px                   0.082     0.080     0.001
      V     5      Py                   0.070     0.071    -0.001
      V     5      Pz                   0.078     0.078     0.001
      V     6      S                    0.996     0.996     0.000
      V     6      Px                   0.995     0.995    -0.000
      V     6      Py                   0.995     0.995     0.000
      V     6      Pz                   0.995     0.995     0.000
      V     6      Dzz                  0.347     0.310     0.037
      V     6      Dzy                  0.324     0.300     0.024
      V     6      Dzx                  0.328     0.302     0.027
      V     6      Dxx-yy               0.332     0.304     0.028
      V     6      Dxy                  0.328     0.298     0.030
      V     6      S                    0.095     0.094     0.002
      V     6      Px                   0.070     0.072    -0.002
      V     6      Py                   0.081     0.080     0.002
      V     6      Pz                   0.078     0.078     0.001
      V     7      S                    0.996     0.996     0.000
      V     7      Px                   0.995     0.995    -0.000
      V     7      Py                   0.995     0.995     0.000
      V     7      Pz                   0.995     0.995     0.000
      V     7      Dzz                  0.338     0.310     0.028
      V     7      Dzy                  0.315     0.291     0.024
      V     7      Dzx                  0.310     0.287     0.024
      V     7      Dxx-yy               0.348     0.320     0.028
      V     7      Dxy                  0.341     0.318     0.023
      V     7      S                    0.093     0.093     0.000
      V     7      Px                   0.060     0.063    -0.003
      V     7      Py                   0.084     0.082     0.002
      V     7      Pz                   0.086     0.085     0.001
      V     8      S                    0.996     0.996     0.000
      V     8      Px                   0.995     0.995     0.000
      V     8      Py                   0.995     0.995     0.000
      V     8      Pz                   0.995     0.995     0.000
      V     8      Dzz                  0.338     0.310     0.028
      V     8      Dzy                  0.328     0.294     0.034
      V     8      Dzx                  0.297     0.283     0.014
      V     8      Dxx-yy               0.345     0.330     0.015
      V     8      Dxy                  0.344     0.308     0.036
      V     8      S                    0.093     0.093     0.000
      V     8      Px                   0.077     0.077     0.000
      V     8      Py                   0.066     0.068    -0.002
      V     8      Pz                   0.086     0.085     0.001
      V     9      S                    0.996     0.995     0.000
      V     9      Px                   0.995     0.995     0.000
      V     9      Py                   0.995     0.995     0.000
      V     9      Pz                   0.995     0.995     0.000
      V     9      Dzz                  0.349     0.318     0.030
      V     9      Dzy                  0.322     0.300     0.023
      V     9      Dzx                  0.324     0.298     0.026
      V     9      Dxx-yy               0.333     0.309     0.024
      V     9      Dxy                  0.327     0.298     0.029
      V     9      S                    0.095     0.094     0.001
      V     9      Px                   0.067     0.069    -0.001
      V     9      Py                   0.083     0.080     0.002
      V     9      Pz                   0.077     0.076     0.001
      V    10      S                    0.996     0.995     0.000
      V    10      Px                   0.995     0.995    -0.000
      V    10      Py                   0.995     0.995     0.000
      V    10      Pz                   0.995     0.995     0.000
      V    10      Dzz                  0.349     0.318     0.030
      V    10      Dzy                  0.330     0.299     0.031
      V    10      Dzx                  0.317     0.299     0.018
      V    10      Dxx-yy               0.330     0.313     0.017
      V    10      Dxy                  0.331     0.295     0.036
      V    10      S                    0.095     0.094     0.001
      V    10      Px                   0.087     0.085     0.002
      V    10      Py                   0.063     0.064    -0.001
      V    10      Pz                   0.077     0.076     0.001
      V    11      S                    0.995     0.995     0.000
      V    11      Px                   0.995     0.995     0.000
      V    11      Py                   0.995     0.995     0.000
      V    11      Pz                   0.995     0.995     0.000
      V    11      Dzz                  0.347     0.318     0.029
      V    11      Dzy                  0.313     0.289     0.024
      V    11      Dzx                  0.326     0.306     0.019
      V    11      Dxx-yy               0.332     0.317     0.015
      V    11      Dxy                  0.328     0.307     0.021
      V    11      S                    0.097     0.095     0.002
      V    11      Px                   0.073     0.071     0.002
      V    11      Py                   0.070     0.073    -0.003
      V    11      Pz                   0.072     0.071     0.001
      V    12      S                    0.995     0.995     0.000
      V    12      Px                   0.996     0.996     0.000
      V    12      Py                   0.994     0.994     0.000
      V    12      Pz                   0.995     0.995     0.000
      V    12      Dzz                  0.347     0.318     0.029
      V    12      Dzy                  0.331     0.312     0.020
      V    12      Dzx                  0.307     0.283     0.024
      V    12      Dxx-yy               0.330     0.319     0.011
      V    12      Dxy                  0.330     0.305     0.025
      V    12      S                    0.097     0.095     0.002
      V    12      Px                   0.076     0.079    -0.002
      V    12      Py                   0.067     0.065     0.002
      V    12      Pz                   0.072     0.071     0.001
     Fe     1      Dzz                  0.999     0.073     0.925
     Fe     1      Dzy                  0.994     0.230     0.764
     Fe     1      Dzx                  0.995     0.196     0.799
     Fe     1      Dxx-yy               0.996     0.159     0.837
     Fe     1      Dxy                  0.997     0.146     0.851
     Fe     1      S                    0.221     0.179     0.042
     Fe     1      Px                   0.090     0.080     0.011
     Fe     1      Py                   0.096     0.083     0.013
     Fe     1      Pz                   0.094     0.082     0.011
     Fe     2      Dzz                  0.999     0.073     0.925
     Fe     2      Dzy                  0.994     0.228     0.766
     Fe     2      Dzx                  0.995     0.199     0.796
     Fe     2      Dxx-yy               0.997     0.117     0.880
     Fe     2      Dxy                  0.996     0.188     0.809
     Fe     2      S                    0.221     0.179     0.042
     Fe     2      Px                   0.094     0.082     0.012
[...]
              O 6  -- V 10                   0.61         0.01          1.74268
              O 40 -- V 10                   0.62         0.01          1.74595
              O 39 -- V 9                    0.62         0.01          1.74596
              O 37 -- V 5                    0.60         0.01          1.74828
              O 38 -- V 6                    0.60         0.01          1.74830
              O 3  -- V 1                    0.62         0.01          1.74902
              O 4  -- V 2                    0.62         0.01          1.74902
              O 7  -- V 11                   0.60         0.01          1.75934
              O 8  -- V 12                   0.60         0.01          1.75934
              O 36 -- V 4                    0.59         0.01          1.76319
              O 35 -- V 3                    0.59         0.01          1.76320
              O 14 -- V 8                    0.54        -0.00          1.77945
              O 13 -- V 7                    0.54        -0.00          1.77948
              O 24 -- V 10                   0.53        -0.00          1.79919
              O 23 -- V 9                    0.53        -0.00          1.79919
              O 24 -- V 6                    0.52        -0.00          1.80088
              O 23 -- V 5                    0.52        -0.00          1.80089
              O 14 -- V 1                    0.51        -0.00          1.81100
              O 13 -- V 2                    0.51        -0.00          1.81104
              O 18 -- V 8                    0.49         0.01          1.81514
              O 17 -- V 7                    0.49         0.01          1.81516
              O 26 -- V 12                   0.49         0.00          1.84314
              O 25 -- V 11                   0.49         0.00          1.84314
              O 15 -- V 3                    0.48         0.01          1.86603
              O 16 -- V 4                    0.48         0.01          1.86603
              O 26 -- V 4                    0.39         0.00          1.88932
              O 25 -- V 3                    0.39         0.00          1.88938
              O 9  -- Fe 1                   0.36        -0.05          1.92574
              O 10 -- Fe 2                   0.36        -0.05          1.92576
              O 34 -- Fe 3                   0.30        -0.04          1.96107
              O 33 -- Fe 4                   0.30        -0.04          1.96111
              O 12 -- Fe 4                   0.29        -0.04          1.98753
              O 11 -- Fe 3                   0.29        -0.04          1.98756
              Li 5 -- O 27                   0.18         0.00          1.98929
              Li 6 -- O 28                   0.18         0.00          1.98930
              O 8  -- Fe 3                   0.28        -0.05          2.00062
              O 7  -- Fe 4                   0.28        -0.05          2.00063
              O 38 -- Fe 6                   0.29        -0.05          2.00882
              O 37 -- Fe 5                   0.29        -0.05          2.00886
              O 4  -- Fe 5                   0.29        -0.04          2.00966
              O 3  -- Fe 6                   0.29        -0.04          2.00967
              O 36 -- Fe 4                   0.27        -0.04          2.01284
              O 35 -- Fe 3                   0.27        -0.04          2.01286
              O 31 -- Fe 1                   0.31        -0.04          2.02590
              O 32 -- Fe 2                   0.31        -0.04          2.02590
              O 21 -- Fe 5                   0.30        -0.04          2.03207
              O 22 -- Fe 6                   0.30        -0.04          2.03208
              O 6  -- Fe 5                   0.28        -0.04          2.03290
              O 5  -- Fe 6                   0.28        -0.04          2.03290
              O 16 -- Fe 5                   0.30        -0.04          2.03626
              O 15 -- Fe 6                   0.30        -0.04          2.03627
              O 40 -- Fe 2                   0.27        -0.04          2.03795
              O 39 -- Fe 1                   0.27        -0.04          2.03796
              Li 3 -- O 40                   0.13         0.00          2.04203
              Li 4 -- O 39                   0.13         0.00          2.04203
              Li 4 -- O 8                    0.14         0.00          2.04454
              Li 3 -- O 7                    0.14         0.00          2.04455
              O 2  -- Fe 4                   0.26        -0.04          2.05047
              O 1  -- Fe 3                   0.26        -0.04          2.05049
              O 30 -- Fe 2                   0.25        -0.04          2.06303
              O 29 -- Fe 1                   0.25        -0.04          2.06303
              Li 2 -- O 27                   0.14         0.00          2.07365
              Li 1 -- O 28                   0.14         0.00          2.07365
              O 15 -- Fe 1                   0.27        -0.04          2.08052
              O 16 -- Fe 2                   0.27        -0.04          2.08053
              O 17 -- Fe 1                   0.18        -0.04          2.09416
              O 18 -- Fe 2                   0.18        -0.04          2.09418
              Li 2 -- O 19                   0.18         0.00          2.09842
              Li 1 -- O 20                   0.18         0.00          2.09843
              Li 6 -- O 30                   0.14         0.00          2.10125
              Li 5 -- O 29                   0.14         0.00          2.10127
              O 41 -- Fe 3                   0.24        -0.04          2.10308
              O 42 -- Fe 4                   0.24        -0.04          2.10309
              Li 1 -- O 6                    0.09         0.00          2.10934
              Li 2 -- O 5                    0.09         0.00          2.10934
              Li 4 -- O 4                    0.13         0.00          2.11089
              Li 3 -- O 3                    0.13         0.00          2.11090
              O 17 -- V 3                    0.24         0.00          2.11816
              O 18 -- V 4                    0.24         0.00          2.11819
              Li 4 -- O 35                   0.14         0.00          2.14831
              Li 3 -- O 36                   0.14         0.00          2.14832
              Li 5 -- O 1                    0.12         0.00          2.15662
              Li 6 -- O 2                    0.12         0.00          2.15663
              Li 2 -- O 38                   0.10         0.00          2.17295
              Li 1 -- O 37                   0.10         0.00          2.17296
              O 26 -- Fe 5                   0.17        -0.04          2.17483
              O 25 -- Fe 6                   0.17        -0.04          2.17485
              Li 5 -- O 17                   0.05         0.00          2.22971
              Li 6 -- O 18                   0.05         0.00          2.22972
              Li 5 -- O 19                   0.01        -0.00          2.28614
              Li 6 -- O 20                   0.01        -0.00          2.28616
              O 16 -- O 26                  -0.05        -0.01          2.49180
              O 15 -- O 25                  -0.05        -0.01          2.49181
              Li 2 -- O 42                   0.04        -0.00          2.49436
              Li 1 -- O 41                   0.04        -0.00          2.49437
              O 15 -- O 17                  -0.06        -0.01          2.55539
              O 16 -- O 18                  -0.06        -0.01          2.55541
              O 18 -- O 36                  -0.04        -0.00          2.66606
              O 17 -- O 35                  -0.04        -0.00          2.66609
              O 5  -- O 38                  -0.04        -0.00          2.67458
              O 6  -- O 37                  -0.04        -0.00          2.67459
              O 7  -- O 36                  -0.04        -0.00          2.68700
              O 8  -- O 35                  -0.04        -0.00          2.68700
              O 30 -- O 40                  -0.04        -0.00          2.71679
              O 29 -- O 39                  -0.04        -0.00          2.71682
              O 17 -- O 29                  -0.04        -0.00          2.72971
              O 18 -- O 30                  -0.04        -0.00          2.72972
              O 10 -- O 28                   0.00        -0.00          2.74176
              O 9  -- O 27                   0.00        -0.00          2.74178
              Li 4 -- O 21                  -0.01         0.00          2.74479
              Li 3 -- O 22                  -0.01         0.00          2.74482
              O 18 -- O 20                  -0.02        -0.00          2.74817
              O 17 -- O 19                  -0.02        -0.00          2.74817
              O 3  -- O 25                  -0.04        -0.00          2.76316
              O 4  -- O 26                  -0.04        -0.00          2.76318
              O 26 -- O 36                  -0.02        -0.00          2.76405
              O 25 -- O 35                  -0.02        -0.00          2.76407
              O 14 -- O 42                  -0.01        -0.00          2.76503
              O 13 -- O 41                  -0.01        -0.00          2.76505
              O 36 -- O 42                  -0.04        -0.00          2.76997
              O 35 -- O 41                  -0.04        -0.00          2.76997
              O 5  -- O 11                   0.00        -0.00          2.77347
              O 6  -- O 12                   0.00        -0.00          2.77348
              O 3  -- O 5                   -0.03        -0.00          2.77813
              O 4  -- O 6                   -0.03        -0.00          2.77813
              O 2  -- O 24                  -0.01        -0.00          2.78187
              O 1  -- O 23                  -0.01        -0.00          2.78187
              Li 1 -- O 13                  -0.02         0.00          2.78502
              Li 2 -- O 14                  -0.02         0.00          2.78503
              O 4  -- O 21                  -0.03        -0.00          2.79278
              O 3  -- O 22                  -0.03        -0.00          2.79281
              O 29 -- O 33                   0.00        -0.00          2.79307
              O 30 -- O 34                   0.00        -0.00          2.79310
              O 21 -- O 37                  -0.03        -0.00          2.79592
              O 22 -- O 38                  -0.03        -0.00          2.79594
              O 34 -- O 41                  -0.03        -0.00          2.79863
              O 33 -- O 42                  -0.03        -0.00          2.79865
              O 22 -- O 42                   0.00        -0.00          2.79962
              O 21 -- O 41                   0.00        -0.00          2.79965
              O 12 -- O 36                  -0.03        -0.00          2.80213
              O 11 -- O 35                  -0.03        -0.00          2.80213
              O 20 -- O 26                  -0.01         0.00          2.80359
              O 19 -- O 25                  -0.01         0.00          2.80363
              O 2  -- O 12                  -0.03        -0.00          2.80839
              O 1  -- O 11                  -0.03        -0.00          2.80839
              O 3  -- O 33                   0.00        -0.00          2.81061
              O 4  -- O 34                   0.00        -0.00          2.81063
              O 20 -- O 36                   0.01         0.00          2.81356
              O 19 -- O 35                   0.01         0.00          2.81357
              O 14 -- O 33                  -0.00         0.00          2.81618
              O 13 -- O 34                  -0.00         0.00          2.81620
              O 23 -- O 39                  -0.01        -0.00          2.81637
              O 24 -- O 40                  -0.01        -0.00          2.81637
              O 12 -- O 40                   0.00        -0.00          2.81673
              O 11 -- O 39                   0.00        -0.00          2.81674
              O 14 -- O 22                   0.00        -0.00          2.81688
              O 13 -- O 21                   0.00        -0.00          2.81691
              O 8  -- O 28                   0.00         0.00          2.81749
              O 7  -- O 27                   0.00         0.00          2.81751
              O 11 -- O 34                  -0.02        -0.00          2.82356
              O 12 -- O 33                  -0.02        -0.00          2.82356
              O 2  -- O 32                   0.00        -0.00          2.82553
              O 1  -- O 31                   0.00        -0.00          2.82553
              O 35 -- V 7                   -0.04        -0.00          2.82864
              O 36 -- V 8                   -0.04        -0.00          2.82866
              O 3  -- O 14                  -0.01        -0.00          2.83274
              O 4  -- O 13                  -0.01        -0.00          2.83274
              O 31 -- O 39                  -0.03        -0.00          2.83339
              O 32 -- O 40                  -0.03        -0.00          2.83340
              O 5  -- O 23                  -0.00        -0.00          2.83774
              O 6  -- O 24                  -0.00        -0.00          2.83775
              O 17 -- O 31                  -0.03        -0.00          2.83837
              O 18 -- O 32                  -0.03        -0.00          2.83838
              O 24 -- O 32                  -0.00        -0.00          2.83896
              O 23 -- O 31                  -0.00        -0.00          2.83897
              O 11 -- O 23                   0.00         0.00          2.84428
              O 12 -- O 24                   0.00         0.00          2.84428
              O 8  -- O 10                   0.00        -0.00          2.84522
              O 7  -- O 9                    0.00        -0.00          2.84524
              O 24 -- O 38                  -0.00        -0.00          2.84747
              O 23 -- O 37                  -0.00        -0.00          2.84747
              O 9  -- O 39                  -0.02        -0.00          2.85059
              O 10 -- O 40                  -0.02        -0.00          2.85060
              O 22 -- O 25                  -0.02        -0.00          2.85246
              O 21 -- O 26                  -0.02        -0.00          2.85247
              O 2  -- O 7                   -0.03        -0.00          2.85512
              O 1  -- O 8                   -0.03        -0.00          2.85514
              O 19 -- O 27                  -0.02        -0.00          2.85841
              O 20 -- O 28                  -0.02        -0.00          2.85843
              O 1  -- O 34                  -0.02        -0.00          2.88088
              O 2  -- O 33                  -0.02        -0.00          2.88088
              O 10 -- O 26                  -0.00         0.00          2.88747
              O 9  -- O 25                  -0.00         0.00          2.88749
              O 14 -- O 29                  -0.00         0.00          2.89000
              O 13 -- O 30                  -0.00         0.00          2.89002
              O 25 -- O 27                   0.00        -0.00          2.90078
              O 26 -- O 28                   0.00        -0.00          2.90079
              O 9  -- O 31                  -0.02        -0.00          2.90090
              O 10 -- O 32                  -0.02        -0.00          2.90091
              O 14 -- O 18                  -0.00        -0.00          2.90137
              Li 5 -- O 23                  -0.02         0.00          2.90138
              O 13 -- O 17                  -0.00        -0.00          2.90138
              Li 6 -- O 24                  -0.02         0.00          2.90139
              O 31 -- O 37                   0.00         0.00          2.90237
              O 32 -- O 38                   0.00         0.00          2.90238
              O 18 -- O 22                   0.00         0.00          2.90979
              O 17 -- O 21                   0.00         0.00          2.90982
              O 15 -- O 29                  -0.02        -0.00          2.91342
              O 16 -- O 30                  -0.02        -0.00          2.91343
              O 1  -- O 37                   0.00        -0.00          2.91533
              O 2  -- O 38                   0.00        -0.00          2.91533
              O 12 -- O 42                  -0.02        -0.00          2.91771
              O 11 -- O 41                  -0.02        -0.00          2.91771
              O 9  -- O 33                  -0.01         0.00          2.93010
              O 10 -- O 34                  -0.01         0.00          2.93010
              O 9  -- O 15                  -0.02        -0.00          2.93348
              O 10 -- O 16                  -0.02        -0.00          2.93349
              O 7  -- O 42                  -0.02        -0.00          2.93950
              O 8  -- O 41                  -0.02        -0.00          2.93950
              O 6  -- O 16                  -0.02        -0.00          2.94569
              O 5  -- O 15                  -0.02        -0.00          2.94571
              O 8  -- O 34                  -0.02        -0.00          2.94666
              O 7  -- O 33                  -0.02        -0.00          2.94666
              O 3  -- O 29                   0.01        -0.00          2.94775
              O 4  -- O 30                   0.01        -0.00          2.94777
              O 18 -- O 42                   0.01        -0.00          2.94797
              O 17 -- O 41                   0.01        -0.00          2.94799
              O 7  -- O 25                  -0.00        -0.00          2.94852
              O 8  -- O 26                  -0.00        -0.00          2.94854
              Li 3 -- O 32                  -0.03         0.00          2.95065
              Li 4 -- O 31                  -0.03         0.00          2.95067
              O 16 -- O 20                   0.00        -0.00          2.95129
              O 15 -- O 19                   0.00        -0.00          2.95130
              O 13 -- O 28                  -0.02        -0.00          2.95207
              O 14 -- O 27                  -0.02        -0.00          2.95207
              O 5  -- O 29                  -0.02         0.00          2.95717
              O 6  -- O 30                  -0.02         0.00          2.95718
              O 27 -- O 29                  -0.02        -0.00          2.97215
              O 28 -- O 30                  -0.02        -0.00          2.97217
              Li 4 -- O 23                  -0.03         0.00          2.99087
              Li 3 -- O 24                  -0.03         0.00          2.99087
              O 6  -- O 40                   0.01        -0.00          2.99110
              O 5  -- O 39                   0.01        -0.00          2.99111
================================================================================


Writing analysis data to ml_dos.castep_bin

Writing model to ml_dos.check
 
 A BibTeX formatted list of references used in this run has been written to 
 ml_dos.bib
 
Initialisation time =     14.04 s
Calculation time    =   6908.43 s
Finalisation time   =      6.61 s
Total time          =   6929.08 s
Peak Memory Use     = 5780728 kB
 
Overall parallel efficiency rating: Poor (43%)
 
Data was distributed by:-
G-vector (40-way); efficiency rating: Poor (44%)
