 +-------------------------------------------------+
 |                                                 |
 |      CCC   AA    SSS  TTTTT  EEEEE  PPPP        |
 |     C     A  A  S       T    E      P   P       |
 |     C     AAAA   SS     T    EEE    PPPP        |
 |     C     A  A     S    T    E      P           |
 |      CCC  A  A  SSS     T    EEEEE  P           |
 |                                                 |
 +-------------------------------------------------+
 |                                                 |
 | Welcome to Academic Release CASTEP version 25.12|
 | Ab Initio Total Energy Program                  |
 |                                                 |
 | Authors:                                        |
 | M. Segall, M. Probert, C. Pickard, P. Hasnip,   |
 | S. Clark, K. Refson, J. R. Yates,               |
 | A. Bartok-Partay, M. Payne                      |
 |                                                 |
 | Contributors:                                   |
 | P. Lindan, P. Haynes, J. White, V. Milman,      |
 | N. Govind, M. Gibson, P. Tulip, V. Cocula,      |
 | B. Montanari, D. Quigley, M. Glover,            |
 | L. Bernasconi, A. Perlov, M. Plummer,           |
 | E. McNellis, J. Meyer, J. Gale, D. Jochym       |
 | J. Aarons, B. Walker, R. Gillen, D. Jones       |
 | T. Green, I. J. Bush, C. J. Armstrong,          |
 | E. J. Higgins, E. L. Brown, M. S. McFly,        |
 | J. Wilkins, B-C. Shih, P. J. P. Byrne,          |
 | R. J. Maurer, J. C. Womack, J. Dziedzic,        |
 | L. LeBlanc, T. K. Stenczel, J. Kermode,         |
 | S. Sturniolo, B. Shi, B. Durham, M. Evans,      |
 | M. J. Smith, A. Tamerus, Z. Hawkhead,           |
 | V. Ravindran, T. Hollins, S. A. Joyce,          |
 | R. T. Strong, A. M. Reilly, S. J. Donaldson,    |
 | J. C. A. Prentice                               |
 |                                                 |
 | Copyright (c) 2000 - 2024                       |
 |                                                 |
 |     Distributed under license from Cambridge    |
 |     Enterprise for academic use only.           |
 |                                                 |
 | Please cite                                     |
 |                                                 |
 |     "First principles methods using CASTEP"     |
 |                                                 |
 |         Zeitschrift fuer Kristallographie       |
 |           220(5-6) pp. 567-570 (2005)           |
 |                                                 |
 | S. J. Clark, M. D. Segall, C. J. Pickard,       |
 | P. J. Hasnip, M. J. Probert, K. Refson,         |
 | M. C. Payne                                     |
 |                                                 |
 |       in all publications arising from          |
 |              your use of CASTEP                 |
 |                                                 |
 +-------------------------------------------------+
 |                                                 |
 |              http://www.castep.org              |
 |                                                 |
 +-------------------------------------------------+



 Compiled for linux_x86_64_gfortran10 on Sun, 13 Jul 2025 14:49:40 -0400
 from code version git version unavailable
 Compiler: GNU Fortran 13.3.0; Optimisation: fast
 Comms   : Open MPI v5.0.3
 MATHLIBS: flexiblas (IMKL) (LAPACK version 3.12.0)
 FFT Lib : fftw3 version fftw-3.3.10-sse2-avx-avx2-avx2_128
 Fundamental constants values: CODATA 2018

 Run started: Thu, 30 Oct 2025 02:44:24 -0400

 Atomic calculation performed for Li: 1s2 2s1

 Converged in 47 iterations to an ae energy of -202.784 eV

   ============================================================                
   | Pseudopotential Report - Date of generation 30-10-2025   |                
   ------------------------------------------------------------                
   | Element: Li Ionic charge:  3.00 Level of theory: PBE     |                
   | Atomic Solver: Koelling-Harmon                           |                
   |                                                          |                
   |               Reference Electronic Structure             |                
   |         Orbital         Occupation         Energy        |                
   |            1s              2.000           -1.906        |                
   |            2s              1.000           -0.106        |                
   |                                                          |                
   |                 Pseudopotential Definition               |                
   |        Beta     l      e      Rc     scheme   norm       |                
   |          1      0   -1.906   1.001     qc      0         |                
   |          2      0   -0.106   1.001     qc      0         |                
   |          3      0    0.250   1.001     qc      0         |                
   |         loc     1    0.000   1.001     pn      0         |                
   |                                                          |                
   | Augmentation charge Rinner = 0.699                       |                
   | No partial core correction                               |                
   ------------------------------------------------------------                
   | "1|1.0|14|16|18|10U:20(qc=7)"                            |                
   ------------------------------------------------------------                
   |      Author: Chris J. Pickard, Cambridge University      |                
   ============================================================                

 Atomic calculation performed for O: 1s2 2s2 2p4

 Converged in 61 iterations to an ae energy of -2040.902 eV

   ============================================================                
   | Pseudopotential Report - Date of generation 30-10-2025   |                
   ------------------------------------------------------------                
   | Element: O Ionic charge:  6.00 Level of theory: PBE      |                
   | Atomic Solver: Koelling-Harmon                           |                
   |                                                          |                
   |               Reference Electronic Structure             |                
   |         Orbital         Occupation         Energy        |                
   |            2s              2.000           -0.881        |                
   |            2p              4.000           -0.332        |                
   |                                                          |                
   |                 Pseudopotential Definition               |                
   |        Beta     l      e      Rc     scheme   norm       |                
   |          1      0   -0.881   1.100     qc      0         |                
   |          2      0    0.250   1.100     qc      0         |                
   |          3      1   -0.332   1.100     qc      0         |                
   |          4      1    0.250   1.100     qc      0         |                
   |         loc     2    0.000   1.100     pn      0         |                
   |                                                          |                
   | Augmentation charge Rinner = 0.769                       |                
   | Partial core correction Rc = 0.769                       |                
   ------------------------------------------------------------                
   | "2|1.1|17|20|23|20:21(qc=8)"                             |                
   ------------------------------------------------------------                
   |      Author: Chris J. Pickard, Cambridge University      |                
   ============================================================                

 Atomic calculation performed for P: 1s2 2s2 2p6 3s2 3p3

 Converged in 56 iterations to an ae energy of -9303.626 eV

   ============================================================                
   | Pseudopotential Report - Date of generation 30-10-2025   |                
   ------------------------------------------------------------                
   | Element: P Ionic charge:  5.00 Level of theory: PBE      |                
   | Atomic Solver: Koelling-Harmon                           |                
   |                                                          |                
   |               Reference Electronic Structure             |                
   |         Orbital         Occupation         Energy        |                
   |            3s              2.000           -0.513        |                
   |            3p              3.000           -0.202        |                
   |                                                          |                
   |                 Pseudopotential Definition               |                
   |        Beta     l      e      Rc     scheme   norm       |                
   |          1      0   -0.513   1.807     qc      0         |                
   |          2      0    0.250   1.807     qc      0         |                
   |          3      1   -0.202   1.807     qc      0         |                
   |          4      1    0.250   1.807     qc      0         |                
   |          5      2    0.000   1.807     qc      0         |                
   |          6      2    0.250   1.807     qc      0         |                
   |         loc     3    0.000   1.807     pn      0         |                
   |                                                          |                
   | Augmentation charge Rinner = 1.263                       |                
   | Partial core correction Rc = 1.263                       |                
   ------------------------------------------------------------                
   | "3|1.8|4|4|5|30:31:32"                                   |                
   ------------------------------------------------------------                
   |      Author: Chris J. Pickard, Cambridge University      |                
   ============================================================                

 Atomic calculation performed for Ti: 1s2 2s2 2p6 3s2 3p6 3d2 4s2

 Converged in 79 iterations to an ae energy of -23226.658 eV

   ============================================================                
   | Pseudopotential Report - Date of generation 30-10-2025   |                
   ------------------------------------------------------------                
   | Element: Ti Ionic charge: 12.00 Level of theory: PBE     |                
   | Atomic Solver: Koelling-Harmon                           |                
   |                                                          |                
   |               Reference Electronic Structure             |                
   |         Orbital         Occupation         Energy        |                
   |            3s              2.000           -2.302        |                
   |            3p              6.000           -1.428        |                
   |            4s              2.000           -0.164        |                
   |            3d              2.000           -0.157        |                
   |                                                          |                
   |                 Pseudopotential Definition               |                
   |        Beta     l      e      Rc     scheme   norm       |                
   |          1      0   -2.302   1.793     qc      0         |                
   |          2      0   -0.164   1.793     qc      0         |                
   |          3      0    0.250   1.793     qc      0         |                
   |          4      1   -1.428   1.793     qc      0         |                
   |          5      1    0.250   1.793     qc      0         |                
   |          6      2   -0.157   1.793     qc      0         |                
   |          7      2    0.250   1.793     qc      0         |                
   |         loc     3    0.000   1.793     pn      0         |                
   |                                                          |                
   | Augmentation charge Rinner = 1.263                       |                
   | Partial core correction Rc = 1.263                       |                
   ------------------------------------------------------------                
   | "3|1.8|9|10|11|30U:40:31:32(qc=5.5)"                     |                
   ------------------------------------------------------------                
   |      Author: Chris J. Pickard, Cambridge University      |                
   ============================================================                

 Pseudo atomic calculation performed for Li 1s2 2s1

 Converged in 18 iterations to a total energy of -200.5098 eV

 Pseudo atomic calculation performed for O 2s2 2p4

 Converged in 24 iterations to a total energy of -432.3399 eV

 Pseudo atomic calculation performed for P 3s2 3p3

 Converged in 18 iterations to a total energy of -214.2237 eV

 Pseudo atomic calculation performed for Ti 3s2 3p6 3d2 4s2

 Converged in 34 iterations to a total energy of -1587.0351 eV
 Calculation parallelised over 12 processes.
 Data is distributed by G-vector(3-way) and k-point(4-way)

 ************************************ Title ************************************
 

 ***************************** General Parameters ******************************
  
 output verbosity                               : normal  (1)
 write checkpoint data to                       : ml_dos.check
 type of calculation                            : Electronic Spectroscopy
 stress calculation                             : off
 density difference calculation                 : off
 electron localisation func (ELF) calculation   : off
 Hirshfeld analysis                             : off
 polarisation (Berry phase) analysis            : off
 molecular orbital projected DOS                : off
 deltaSCF calculation                           : off
 unlimited duration calculation
 timing information                             : on
 memory usage estimate                          : on
 write extra output files                       : on
 write final potential to formatted file        : off
 write final density to formatted file          : off
 write BibTeX reference list                    : on
 write OTFG pseudopotential files               : on
 write electrostatic potential file             : on
 write bands file                               : on
 checkpoint writing                             : both castep_bin and check files
  
 output         length unit                     : A
 output           mass unit                     : amu
 output           time unit                     : ps
 output         charge unit                     : e
 output           spin unit                     : hbar/2
 output         energy unit                     : eV
 output          force unit                     : eV/A
 output       velocity unit                     : A/ps
 output       pressure unit                     : GPa
 output     inv_length unit                     : 1/A
 output      frequency unit                     : cm-1
 output force constant unit                     : eV/A**2
 output         volume unit                     : A**3
 output   IR intensity unit                     : (D/A)**2/amu
 output         dipole unit                     : D
 output         efield unit                     : eV/A/e
 output        entropy unit                     : J/mol/K
 output    efield chi2 unit                     : pm/V
  
 wavefunctions paging                           : none
 random number generator seed                   :   24424448
 data distribution                              : optimal for this architecture
 optimization strategy                          : balance speed and memory

 *********************** Exchange-Correlation Parameters ***********************
  
 using functional                               : Perdew Burke Ernzerhof
 relativistic treatment                         : Koelling-Harmon
 DFT+D: Semi-empirical dispersion correction    : off

 ************************* Pseudopotential Parameters **************************
  
 pseudopotential representation                 : reciprocal space
 <beta|phi> representation                      : reciprocal space
 spin-orbit coupling                            : off

 **************************** Basis Set Parameters *****************************
  
 plane wave basis set cut-off                   :   900.0000   eV
 size of standard grid                          :     2.0000
 size of   fine   gmax                          :    30.7390   1/A
 finite basis set correction                    : none

 **************************** Electronic Parameters ****************************
  
 number of  electrons                           :  228.0    
 net charge of system                           :  0.000    
 treating system as non-spin-polarized
 number of bands                                :        137

 ********************* Electronic Minimization Parameters **********************
  
 Method: Treating system as metallic with density mixing treatment of electrons,
         and number of  SD  steps               :          1
         and number of  CG  steps               :          4
  
 total energy / atom convergence tol.           : 0.1000E-05   eV
 eigen-energy convergence tolerance             : 0.3158E-06   eV
 max force / atom convergence tol.              : ignored
 convergence tolerance window                   :          3   cycles
 max. number of SCF cycles                      :        300
 number of fixed-spin iterations                :         10
 smearing scheme                                : Gaussian
 smearing width                                 : 0.2000       eV
 Fermi energy convergence tolerance             : 0.2721E-13   eV
 periodic dipole correction                     : NONE

 ************************** Density Mixing Parameters **************************
  
 density-mixing scheme                          : Pulay
 max. length of mixing history                  :         20
 charge density mixing amplitude                : 0.2000    
 cut-off energy for mixing                      :  900.0       eV

 *********************** Population Analysis Parameters ************************
  
 Population analysis with cutoff                :  3.000       A
 Population analysis output                     : summary and pdos components
 Partial DOS weights calculated

 ********************* Electronic Spectroscopy Parameters **********************
  
 electronic spectroscopy with theory level      : DFT       
 spectroscopy calculation                       : density of states
 max. number of iterations                      :         60
 max. steps per iteration                       :          5
 number of bands / k-point                      :        196
 band convergence tolerance                     : 0.1000E-05   eV
 write orbitals file                            : off

 *******************************************************************************
  

                           -------------------------------
                                      Unit Cell
                           -------------------------------
        Real Lattice(A)                      Reciprocal Lattice(1/A)
     8.6122700     0.0000000     0.0000000        0.729562044  -0.420870099  -0.297331771
     4.3051240     7.4627660     0.0000000        0.000000000   0.841937870  -0.297345536
     4.3051170     2.4872720     7.0427440        0.000000000   0.000000000   0.892150177

                       Lattice parameters(A)       Cell Angles
                    a =      8.612270          alpha =   60.036463
                    b =      8.615507          beta  =   60.041114
                    c =      8.620951          gamma =   60.020192

                       Current cell volume =           452.646705       A**3
                                   density =             1.712546   AMU/A**3
                                           =             2.843749     g/cm^3

                           -------------------------------
                                     Cell Contents
                           -------------------------------
                         Total number of ions in cell =   36
                      Total number of species in cell =    4
                        Max number of any one species =   24

            xxxxxxxxxxxxxxxxxxxxxxxxxxxxxxxxxxxxxxxxxxxxxxxxxxxxxxxxxxxx
            x  Element    Atom        Fractional coordinates of atoms  x
            x            Number           u          v          w      x
            x----------------------------------------------------------x
            x  Li           1         0.500386   0.499559   0.499723   x 
            x  Li           2         0.000141   0.999941   0.999726   x 
            x  O            1         0.498978   0.124053   0.307036   x 
            x  O            2         0.124191   0.307242   0.497671   x 
            x  O            3         0.307640   0.497448   0.123951   x 
            x  O            4         0.998053   0.807622   0.623628   x 
            x  O            5         0.807577   0.623996   0.997372   x 
            x  O            6         0.623713   0.998099   0.807869   x 
            x  O            7         0.502296   0.875981   0.692698   x 
            x  O            8         0.875490   0.692750   0.502624   x 
            x  O            9         0.692241   0.501856   0.876341   x 
            x  O           10         0.002153   0.192522   0.375975   x 
            x  O           11         0.192029   0.376342   0.002337   x 
            x  O           12         0.376462   0.002820   0.192126   x 
            x  O           13         0.443308   0.231251   0.584511   x 
            x  O           14         0.231229   0.584128   0.443336   x 
            x  O           15         0.584048   0.444304   0.231107   x 
            x  O           16         0.942818   0.084747   0.731006   x 
            x  O           17         0.084917   0.731436   0.943043   x 
            x  O           18         0.731648   0.942641   0.084455   x 
            x  O           19         0.555765   0.769123   0.416396   x 
            x  O           20         0.768750   0.416507   0.555329   x 
            x  O           21         0.416045   0.555590   0.769088   x 
            x  O           22         0.056234   0.915974   0.269132   x 
            x  O           23         0.915442   0.268661   0.056437   x 
            x  O           24         0.268936   0.056026   0.916230   x 
            x  P            1         0.540936   0.959248   0.250101   x 
            x  P            2         0.959135   0.250152   0.540186   x 
            x  P            3         0.250089   0.540214   0.959649   x 
            x  P            4         0.040477   0.750032   0.459625   x 
            x  P            5         0.749887   0.459608   0.040453   x 
            x  P            6         0.459438   0.040584   0.750279   x 
            x  Ti           1         0.358673   0.358448   0.358480   x 
            x  Ti           2         0.858494   0.858394   0.858373   x 
            x  Ti           3         0.640982   0.641312   0.642027   x 
            x  Ti           4         0.141398   0.141389   0.141680   x 
            xxxxxxxxxxxxxxxxxxxxxxxxxxxxxxxxxxxxxxxxxxxxxxxxxxxxxxxxxxxx


                         No user defined ionic velocities

                           -------------------------------
                                   Details of Species
                           -------------------------------

                               Mass of species in AMU
                                    Li    6.9410000
                                    O   15.9994000
                                    P   30.9737600
                                    Ti   47.8670000

                          Electric Quadrupole Moment (Barn)
                                    Li   -0.0401000 Isotope   7
                                    O   -0.0255800 Isotope  17
                                    P    1.0000000 No Isotope Defined
                                    Ti    0.3020000 Isotope  47

                          Files used for pseudopotentials:
                                    Li 1|1.0|14|16|18|10U:20(qc=7)
                                    O 2|1.1|17|20|23|20:21(qc=8)
                                    P 3|1.8|4|4|5|30:31:32
                                    Ti 3|1.8|9|10|11|30U:40:31:32(qc=5.5)

                           -------------------------------
                              k-Points For BZ Sampling
                           -------------------------------
                       MP grid size for SCF calculation is  4  4  4
                            with an offset of   0.000  0.000  0.000
                       Number of kpoints used =            32

                           -------------------------------
                               Symmetry and Constraints
                           -------------------------------

                      Maximum deviation from symmetry =  0.00000         ANG

                      Number of symmetry operations   =           1
                      Number of ionic constraints     =           3
                      Point group of crystal =     1: C1, 1, 1
                      Space group of crystal =     1: P1, P 1

             Set iprint > 1 for details on symmetry rotations/translations

                         Centre of mass is constrained
             Set iprint > 2 for details of linear ionic constraints

                         Number of cell constraints= 0
                         Cell constraints are:  1 2 3 4 5 6

                         External pressure/stress (GPa)
                          0.00000   0.00000   0.00000
                                    0.00000   0.00000
                                              0.00000
 
+---------------- MEMORY AND SCRATCH DISK ESTIMATES PER PROCESS --------------+
|                                                     Memory          Disk    |
| Baseline code, static data and system overhead      804.0 MB         0.0 MB |
| BLAS internal memory storage                          0.0 MB         0.0 MB |
| Model and support data                             1371.9 MB         0.0 MB |
| Electronic energy minimisation requirements         418.3 MB         0.0 MB |
| Force calculation requirements                       35.2 MB         0.0 MB |
|                                               ----------------------------- |
| Approx. total storage required per process         2594.2 MB         0.0 MB |
|                                                                             |
| Requirements will fluctuate during execution and may exceed these estimates |
+-----------------------------------------------------------------------------+
Calculating approximate eigenstates for fixed initial Hamiltonian
Cut-off for approx. calculation is   98.987 eV
Improving approx. states at cut-off of  450.000 eV
Resetting cut-off to  900.000 eV
Calculating total energy with cut-off of  900.000 eV.
------------------------------------------------------------------------ <-- SCF
SCF loop      Energy           Fermi           Energy gain       Timer   <-- SCF
                               energy          per atom          (sec)   <-- SCF
------------------------------------------------------------------------ <-- SCF
Initial  -1.83010021E+004  0.00000000E+000                        57.57  <-- SCF
      1  -1.87082374E+004  3.77733532E+000   1.13120915E+001     124.90  <-- SCF
      2  -1.87093130E+004  3.75911301E+000   2.98783228E-002     184.28  <-- SCF
      3  -1.86922487E+004  2.98691595E+000  -4.74008907E-001     230.41  <-- SCF
      4  -1.86870956E+004  2.42878114E+000  -1.43141843E-001     300.35  <-- SCF
      5  -1.86870192E+004  3.07306712E+000  -2.12319505E-003     363.77  <-- SCF
      6  -1.86872792E+004  3.65922291E+000   7.22281588E-003     405.05  <-- SCF
      7  -1.86868397E+004  3.39672149E+000  -1.22087286E-002     447.21  <-- SCF
      8  -1.86867716E+004  3.13382879E+000  -1.89094737E-003     492.27  <-- SCF
      9  -1.86867803E+004  3.15034096E+000   2.41052183E-004     538.85  <-- SCF
     10  -1.86867869E+004  3.15480002E+000   1.84124035E-004     581.74  <-- SCF
     11  -1.86867861E+004  3.18580020E+000  -2.27740414E-005     623.78  <-- SCF
     12  -1.86867860E+004  3.20201663E+000  -2.83514681E-006     658.05  <-- SCF
     13  -1.86867861E+004  3.19695386E+000   3.33053976E-006     693.40  <-- SCF
     14  -1.86867860E+004  3.19705758E+000  -3.22284171E-006     721.22  <-- SCF
     15  -1.86867860E+004  3.19785146E+000   4.08431235E-007     747.58  <-- SCF
     16  -1.86867860E+004  3.19805006E+000   6.42221401E-007     774.03  <-- SCF
     17  -1.86867860E+004  3.19863238E+000  -9.99153869E-008     800.76  <-- SCF
------------------------------------------------------------------------ <-- SCF
 
Final energy, E             =  -18686.78603946     eV
Final free energy (E-TS)    =  -18686.78603946     eV
(energies not corrected for finite basis set)
 
NB est. 0K energy (E-0.5TS)      =  -18686.78603946     eV
 

Writing analysis data to ml_dos.castep_bin

Writing model to ml_dos.check
 
+---------------- MEMORY AND SCRATCH DISK ESTIMATES PER PROCESS --------------+
|                                                     Memory          Disk    |
|                                               ----------------------------- |
| Approx. total storage required per process         1359.5 MB         0.0 MB |
|                                                                             |
| Requirements will fluctuate during execution and may exceed these estimates |
+-----------------------------------------------------------------------------+
 
  =====================================================================
  +                                                                   +
  +                 Calculation of Spectral Properties                +
  +                                                                   +
  + Calculation re-parallelised over 12 processes.                    +
  + There are 32 k-points distributed across 4 k-point groups.        +
  + Data distributed by G-vector(3-way), k-point(4-way), band(1-way)  +
  + Data distributed by G-vector(3-way), k-point(4-way)               +
  +                                                                   +
  =====================================================================

 Pseudo atomic calculation performed for Li 1s2 2s1

 Converged in 18 iterations to a total energy of -200.5098 eV

 Pseudo atomic calculation performed for O 2s2 2p4

 Converged in 24 iterations to a total energy of -432.3399 eV

 Pseudo atomic calculation performed for P 3s2 3p3

 Converged in 18 iterations to a total energy of -214.2237 eV

 Pseudo atomic calculation performed for Ti 3s2 3p6 3d2 4s2

 Converged in 34 iterations to a total energy of -1587.0351 eV
  Starting k-point:        1 of        8 Time:      0.00 sec  |<-- SPEC

 Pseudo atomic calculation performed for Li 1s2 2s1

 Converged in 18 iterations to a total energy of -200.5098 eV

 Pseudo atomic calculation performed for O 2s2 2p4

 Converged in 24 iterations to a total energy of -432.3399 eV

 Pseudo atomic calculation performed for P 3s2 3p3

 Converged in 18 iterations to a total energy of -214.2237 eV

 Pseudo atomic calculation performed for Ti 3s2 3p6 3d2 4s2

 Converged in 34 iterations to a total energy of -1587.0351 eV
  Starting k-point:        2 of        8 Time:     73.75 sec  |<-- SPEC

 Pseudo atomic calculation performed for Li 1s2 2s1

 Converged in 18 iterations to a total energy of -200.5098 eV

 Pseudo atomic calculation performed for O 2s2 2p4

 Converged in 24 iterations to a total energy of -432.3399 eV

 Pseudo atomic calculation performed for P 3s2 3p3

 Converged in 18 iterations to a total energy of -214.2237 eV

 Pseudo atomic calculation performed for Ti 3s2 3p6 3d2 4s2

 Converged in 34 iterations to a total energy of -1587.0351 eV
  Starting k-point:        3 of        8 Time:    149.76 sec  |<-- SPEC

 Pseudo atomic calculation performed for Li 1s2 2s1

 Converged in 18 iterations to a total energy of -200.5098 eV

 Pseudo atomic calculation performed for O 2s2 2p4

 Converged in 24 iterations to a total energy of -432.3399 eV

 Pseudo atomic calculation performed for P 3s2 3p3

 Converged in 18 iterations to a total energy of -214.2237 eV

 Pseudo atomic calculation performed for Ti 3s2 3p6 3d2 4s2

 Converged in 34 iterations to a total energy of -1587.0351 eV
  Starting k-point:        4 of        8 Time:    222.29 sec  |<-- SPEC

 Pseudo atomic calculation performed for Li 1s2 2s1

 Converged in 18 iterations to a total energy of -200.5098 eV

 Pseudo atomic calculation performed for O 2s2 2p4

 Converged in 24 iterations to a total energy of -432.3399 eV

 Pseudo atomic calculation performed for P 3s2 3p3

 Converged in 18 iterations to a total energy of -214.2237 eV

 Pseudo atomic calculation performed for Ti 3s2 3p6 3d2 4s2

 Converged in 34 iterations to a total energy of -1587.0351 eV
  Starting k-point:        5 of        8 Time:    295.16 sec  |<-- SPEC

 Pseudo atomic calculation performed for Li 1s2 2s1

 Converged in 18 iterations to a total energy of -200.5098 eV

 Pseudo atomic calculation performed for O 2s2 2p4

 Converged in 24 iterations to a total energy of -432.3399 eV

 Pseudo atomic calculation performed for P 3s2 3p3

 Converged in 18 iterations to a total energy of -214.2237 eV

 Pseudo atomic calculation performed for Ti 3s2 3p6 3d2 4s2

 Converged in 34 iterations to a total energy of -1587.0351 eV
  Starting k-point:        6 of        8 Time:    369.71 sec  |<-- SPEC

 Pseudo atomic calculation performed for Li 1s2 2s1

 Converged in 18 iterations to a total energy of -200.5098 eV

 Pseudo atomic calculation performed for O 2s2 2p4

 Converged in 24 iterations to a total energy of -432.3399 eV

 Pseudo atomic calculation performed for P 3s2 3p3

 Converged in 18 iterations to a total energy of -214.2237 eV

 Pseudo atomic calculation performed for Ti 3s2 3p6 3d2 4s2

 Converged in 34 iterations to a total energy of -1587.0351 eV
  Starting k-point:        7 of        8 Time:    443.29 sec  |<-- SPEC

 Pseudo atomic calculation performed for Li 1s2 2s1

 Converged in 18 iterations to a total energy of -200.5098 eV

 Pseudo atomic calculation performed for O 2s2 2p4

 Converged in 24 iterations to a total energy of -432.3399 eV

 Pseudo atomic calculation performed for P 3s2 3p3

 Converged in 18 iterations to a total energy of -214.2237 eV

 Pseudo atomic calculation performed for Ti 3s2 3p6 3d2 4s2

 Converged in 34 iterations to a total energy of -1587.0351 eV
  Starting k-point:        8 of        8 Time:    517.65 sec  |<-- SPEC

 Pseudo atomic calculation performed for Li 1s2 2s1

 Converged in 18 iterations to a total energy of -200.5098 eV

 Pseudo atomic calculation performed for O 2s2 2p4

 Converged in 24 iterations to a total energy of -432.3399 eV

 Pseudo atomic calculation performed for P 3s2 3p3

 Converged in 18 iterations to a total energy of -214.2237 eV

 Pseudo atomic calculation performed for Ti 3s2 3p6 3d2 4s2

 Converged in 34 iterations to a total energy of -1587.0351 eV
  Check-pointing spectral run                                 |<-- SPEC
  Total time to compute matrix elements            591.51 sec |<-- SPEC
  
  + Calculation re-parallelised over 12 processes.                    +
  + Data distributed by G-vector(3-way), k-point(4-way)               +

 ************************** Forces **************************
 *                                                          *
 *               Cartesian components (eV/A)                *
 * -------------------------------------------------------- *
 *                         x            y            z      *
 *                                                          *
 * Li              1      0.00397      0.00144      0.00007 *
 * Li              2     -0.00097     -0.00082      0.00077 *
 * O               1      0.00242      0.10030      0.01856 *
 * O               2      0.07775     -0.00749     -0.05008 *
 * O               3      0.09804     -0.01183      0.15346 *
 * O               4      0.05172      0.10855      0.19856 *
 * O               5      0.11389      0.14501     -0.07714 *
 * O               6      0.17439     -0.06592      0.02188 *
 * O               7     -0.01856     -0.11348     -0.00555 *
 * O               8     -0.07798     -0.00915      0.04146 *
 * O               9     -0.08391      0.02384     -0.14205 *
 * O              10     -0.05404     -0.10626     -0.16835 *
 * O              11     -0.13422     -0.17648      0.07803 *
 * O              12     -0.19548      0.06081     -0.02182 *
 * O              13     -0.02778      0.06656     -0.11623 *
 * O              14      0.04219     -0.11559     -0.01539 *
 * O              15     -0.09540      0.00386      0.10821 *
 * O              16     -0.04409     -0.10528      0.11790 *
 * O              17     -0.14055      0.13426     -0.02911 *
 * O              18      0.06154     -0.07810     -0.12687 *
 * O              19      0.02837     -0.07961      0.11301 *
 * O              20     -0.04551      0.12369      0.03794 *
 * O              21      0.10910     -0.01245     -0.11749 *
 * O              22      0.03823      0.08315     -0.12140 *
 * O              23      0.13800     -0.11771      0.03615 *
 * O              24     -0.05994      0.08539      0.12776 *
 * P               1      0.02734      0.09636      0.01336 *
 * P               2      0.12515      0.04714      0.00856 *
 * P               3      0.02519      0.02982     -0.01034 *
 * P               4     -0.09687     -0.03561     -0.00909 *
 * P               5     -0.04932     -0.03250      0.00963 *
 * P               6     -0.04973     -0.04440     -0.03721 *
 * Ti              1     -0.04822     -0.03508     -0.01148 *
 * Ti              2      0.02902      0.00179     -0.00554 *
 * Ti              3      0.04877      0.02837     -0.01332 *
 * Ti              4      0.02751      0.00741     -0.00688 *
 *                                                          *
 ************************************************************

 Pseudo atomic calculation performed for Li 1s2 2s1

 Converged in 18 iterations to a total energy of -200.5098 eV

 Pseudo atomic calculation performed for O 2s2 2p4

 Converged in 24 iterations to a total energy of -432.3399 eV

 Pseudo atomic calculation performed for P 3s2 3p3

 Converged in 18 iterations to a total energy of -214.2237 eV

 Pseudo atomic calculation performed for Ti 3s2 3p6 3d2 4s2

 Converged in 34 iterations to a total energy of -1587.0351 eV
Charge spilling parameter for spin component 1 = 0.90%

            Orbital Populations       
     Ion    Atom   Orbital             Charge
  -------------------------------------------
     Li     1      S                    2.000
     Li     1      S                   -0.021
     Li     1      Px                   0.031
     Li     1      Py                   0.033
     Li     1      Pz                   0.033
     Li     2      S                    2.000
     Li     2      S                   -0.021
     Li     2      Px                   0.031
     Li     2      Py                   0.033
     Li     2      Pz                   0.033
      O     1      S                    1.827
      O     1      Px                   1.749
      O     1      Py                   1.544
      O     1      Pz                   1.759
      O     2      S                    1.827
      O     2      Px                   1.535
      O     2      Py                   1.769
      O     2      Pz                   1.748
      O     3      S                    1.827
      O     3      Px                   1.679
      O     3      Py                   1.770
      O     3      Pz                   1.606
      O     4      S                    1.827
      O     4      Px                   1.750
      O     4      Py                   1.698
      O     4      Pz                   1.606
      O     5      S                    1.827
      O     5      Px                   1.679
      O     5      Py                   1.627
      O     5      Pz                   1.748
      O     6      S                    1.827
      O     6      Px                   1.537
      O     6      Py                   1.758
      O     6      Pz                   1.759
      O     7      S                    1.827
      O     7      Px                   1.750
      O     7      Py                   1.544
      O     7      Pz                   1.759
      O     8      S                    1.827
      O     8      Px                   1.536
      O     8      Py                   1.770
      O     8      Pz                   1.748
      O     9      S                    1.827
      O     9      Px                   1.679
      O     9      Py                   1.769
      O     9      Pz                   1.606
      O    10      S                    1.827
      O    10      Px                   1.751
      O    10      Py                   1.698
      O    10      Pz                   1.606
      O    11      S                    1.827
      O    11      Px                   1.679
      O    11      Py                   1.628
      O    11      Pz                   1.748
      O    12      S                    1.827
      O    12      Px                   1.537
      O    12      Py                   1.758
      O    12      Pz                   1.759
      O    13      S                    1.844
      O    13      Px                   1.768
      O    13      Py                   1.695
      O    13      Pz                   1.616
      O    14      S                    1.844
      O    14      Px                   1.719
      O    14      Py                   1.567
      O    14      Pz                   1.792
      O    15      S                    1.844
      O    15      Px                   1.686
      O    15      Py                   1.785
      O    15      Pz                   1.607
      O    16      S                    1.844
      O    16      Px                   1.767
      O    16      Py                   1.704
      O    16      Pz                   1.607
      O    17      S                    1.845
      O    17      Px                   1.687
      O    17      Py                   1.599
      O    17      Pz                   1.793
      O    18      S                    1.844
      O    18      Px                   1.719
      O    18      Py                   1.744
      O    18      Pz                   1.615
      O    19      S                    1.844
      O    19      Px                   1.768
      O    19      Py                   1.696
      O    19      Pz                   1.614
      O    20      S                    1.844
      O    20      Px                   1.718
      O    20      Py                   1.567
      O    20      Pz                   1.793
      O    21      S                    1.844
      O    21      Px                   1.686
      O    21      Py                   1.784
      O    21      Pz                   1.607
      O    22      S                    1.844
      O    22      Px                   1.767
      O    22      Py                   1.703
      O    22      Pz                   1.608
      O    23      S                    1.844
      O    23      Px                   1.687
      O    23      Py                   1.598
      O    23      Pz                   1.793
      O    24      S                    1.844
      O    24      Px                   1.718
      O    24      Py                   1.745
      O    24      Pz                   1.615
      P     1      S                    0.894
      P     1      Px                   0.601
      P     1      Py                   0.616
      P     1      Pz                   0.616
      P     2      S                    0.894
      P     2      Px                   0.602
      P     2      Py                   0.618
      P     2      Pz                   0.614
      P     3      S                    0.893
      P     3      Px                   0.614
      P     3      Py                   0.605
      P     3      Pz                   0.614
      P     4      S                    0.894
      P     4      Px                   0.601
      P     4      Py                   0.618
      P     4      Pz                   0.614
      P     5      S                    0.894
      P     5      Px                   0.614
      P     5      Py                   0.605
      P     5      Pz                   0.614
      P     6      S                    0.894
      P     6      Px                   0.601
      P     6      Py                   0.616
      P     6      Pz                   0.617
     Ti     1      S                    1.992
     Ti     1      Px                   1.991
     Ti     1      Py                   1.992
     Ti     1      Pz                   1.992
     Ti     1      S                    0.217
     Ti     1      Dzz                  0.408
     Ti     1      Dzy                  0.387
     Ti     1      Dzx                  0.452
     Ti     1      Dxx-yy               0.464
     Ti     1      Dxy                  0.351
     Ti     1      Px                   0.079
     Ti     1      Py                   0.069
     Ti     1      Pz                   0.067
     Ti     2      S                    1.992
     Ti     2      Px                   1.991
     Ti     2      Py                   1.992
     Ti     2      Pz                   1.992
     Ti     2      S                    0.217
     Ti     2      Dzz                  0.408
     Ti     2      Dzy                  0.453
     Ti     2      Dzx                  0.386
     Ti     2      Dxx-yy               0.397
     Ti     2      Dxy                  0.417
     Ti     2      Px                   0.079
     Ti     2      Py                   0.069
     Ti     2      Pz                   0.066
     Ti     3      S                    1.992
     Ti     3      Px                   1.991
     Ti     3      Py                   1.992
     Ti     3      Pz                   1.992
     Ti     3      S                    0.216
     Ti     3      Dzz                  0.407
     Ti     3      Dzy                  0.387
     Ti     3      Dzx                  0.453
     Ti     3      Dxx-yy               0.464
     Ti     3      Dxy                  0.351
     Ti     3      Px                   0.079
     Ti     3      Py                   0.069
     Ti     3      Pz                   0.066
     Ti     4      S                    1.992
     Ti     4      Px                   1.991
     Ti     4      Py                   1.992
     Ti     4      Pz                   1.992
     Ti     4      S                    0.217
     Ti     4      Dzz                  0.407
     Ti     4      Dzy                  0.453
     Ti     4      Dzx                  0.386
     Ti     4      Dxx-yy               0.397
     Ti     4      Dxy                  0.417
     Ti     4      Px                   0.079
     Ti     4      Py                   0.069
     Ti     4      Pz                   0.066
  -------------------------------------------
                           Total:     227.995
  -------------------------------------------

     Atomic Populations (Mulliken)
     -----------------------------
Species          Ion     s       p       d       f      Total   Charge (e)
==========================================================================
  Li              1     1.979   0.097   0.000   0.000   2.076     0.924
  Li              2     1.979   0.097   0.000   0.000   2.076     0.924
  O               1     1.827   5.053   0.000   0.000   6.880    -0.880
  O               2     1.827   5.052   0.000   0.000   6.880    -0.880
  O               3     1.827   5.054   0.000   0.000   6.881    -0.881
  O               4     1.827   5.055   0.000   0.000   6.882    -0.882
  O               5     1.827   5.054   0.000   0.000   6.881    -0.881
  O               6     1.827   5.054   0.000   0.000   6.881    -0.881
  O               7     1.827   5.053   0.000   0.000   6.881    -0.881
  O               8     1.827   5.053   0.000   0.000   6.881    -0.881
  O               9     1.827   5.054   0.000   0.000   6.881    -0.881
  O              10     1.827   5.055   0.000   0.000   6.882    -0.882
  O              11     1.827   5.055   0.000   0.000   6.882    -0.882
  O              12     1.827   5.054   0.000   0.000   6.881    -0.881
  O              13     1.844   5.078   0.000   0.000   6.923    -0.923
  O              14     1.844   5.078   0.000   0.000   6.922    -0.922
  O              15     1.844   5.078   0.000   0.000   6.922    -0.922
  O              16     1.844   5.078   0.000   0.000   6.922    -0.922
  O              17     1.845   5.079   0.000   0.000   6.923    -0.923
  O              18     1.844   5.078   0.000   0.000   6.922    -0.922
  O              19     1.844   5.078   0.000   0.000   6.923    -0.923
  O              20     1.844   5.079   0.000   0.000   6.923    -0.923
  O              21     1.844   5.077   0.000   0.000   6.922    -0.922
  O              22     1.844   5.078   0.000   0.000   6.922    -0.922
  O              23     1.844   5.078   0.000   0.000   6.922    -0.922
  O              24     1.844   5.078   0.000   0.000   6.923    -0.923
  P               1     0.894   1.834   0.000   0.000   2.728     2.272
  P               2     0.894   1.834   0.000   0.000   2.728     2.272
  P               3     0.893   1.833   0.000   0.000   2.726     2.274
  P               4     0.894   1.834   0.000   0.000   2.728     2.272
  P               5     0.894   1.833   0.000   0.000   2.727     2.273
  P               6     0.894   1.834   0.000   0.000   2.728     2.272
  Ti              1     2.209   6.189   2.062   0.000  10.460     1.540
  Ti              2     2.209   6.189   2.061   0.000  10.459     1.541
  Ti              3     2.209   6.189   2.062   0.000  10.459     1.541
  Ti              4     2.209   6.189   2.061   0.000  10.459     1.541
==========================================================================

                 Bond                   Population      Length (A)
======================================================================
              O 11 -- P 3                    0.64        1.54321
              O 4  -- P 4                    0.64        1.54347
              O 10 -- P 2                    0.64        1.54347
              O 19 -- P 1                    0.64        1.54363
              O 17 -- P 3                    0.64        1.54398
              O 23 -- P 5                    0.64        1.54399
              O 24 -- P 6                    0.64        1.54399
              O 18 -- P 1                    0.64        1.54405
              O 5  -- P 5                    0.64        1.54408
              O 20 -- P 2                    0.64        1.54408
              O 16 -- P 2                    0.64        1.54410
              O 6  -- P 6                    0.64        1.54420
              O 14 -- P 4                    0.64        1.54433
              O 3  -- P 3                    0.64        1.54437
              O 13 -- P 6                    0.64        1.54443
              O 22 -- P 4                    0.64        1.54446
              O 12 -- P 1                    0.64        1.54448
              O 15 -- P 5                    0.64        1.54464
              O 21 -- P 3                    0.64        1.54464
              O 9  -- P 5                    0.64        1.54504
              O 7  -- P 6                    0.64        1.54624
              O 8  -- P 4                    0.64        1.54660
              O 1  -- P 1                    0.64        1.54719
              O 2  -- P 2                    0.64        1.54766
              O 5  -- Ti 2                   0.42        1.91033
              O 6  -- Ti 2                   0.42        1.91058
              O 7  -- Ti 3                   0.42        1.91123
              O 10 -- Ti 4                   0.42        1.91144
              O 2  -- Ti 1                   0.42        1.91153
              O 9  -- Ti 3                   0.42        1.91183
              O 1  -- Ti 1                   0.42        1.91196
              O 8  -- Ti 3                   0.42        1.91258
              O 12 -- Ti 4                   0.42        1.91260
              O 3  -- Ti 1                   0.42        1.91262
              O 11 -- Ti 4                   0.42        1.91330
              O 4  -- Ti 2                   0.42        1.91335
              O 21 -- Ti 3                   0.33        2.00013
              O 22 -- Ti 4                   0.33        2.00100
              O 14 -- Ti 1                   0.33        2.00160
              O 18 -- Ti 2                   0.33        2.00328
              O 24 -- Ti 4                   0.33        2.00331
              O 19 -- Ti 3                   0.33        2.00334
              O 15 -- Ti 1                   0.33        2.00379
              O 20 -- Ti 3                   0.33        2.00384
              O 16 -- Ti 2                   0.33        2.00403
              O 13 -- Ti 1                   0.33        2.00412
              O 23 -- Ti 4                   0.33        2.00503
              O 17 -- Ti 2                   0.33        2.00605
              Li 1 -- O 20                   0.04        2.27919
              Li 1 -- O 15                   0.04        2.28042
              Li 2 -- O 17                   0.04        2.28214
              Li 1 -- O 13                   0.04        2.28220
              Li 2 -- O 24                   0.04        2.28402
              Li 2 -- O 23                   0.04        2.28425
              Li 2 -- O 18                   0.04        2.28426
              Li 1 -- O 14                   0.04        2.28566
              Li 2 -- O 16                   0.04        2.28808
              Li 1 -- O 19                   0.04        2.28812
              Li 1 -- O 21                   0.04        2.28863
              Li 2 -- O 22                   0.04        2.28996
              O 9  -- O 23                  -0.13        2.47939
              O 5  -- O 15                  -0.13        2.48015
              O 11 -- O 21                  -0.13        2.48022
              O 10 -- O 20                  -0.13        2.48090
              O 3  -- O 17                  -0.13        2.48161
              O 7  -- O 24                  -0.13        2.48215
              O 6  -- O 13                  -0.13        2.48235
              O 12 -- O 19                  -0.13        2.48248
              O 2  -- O 16                  -0.13        2.48261
              O 4  -- O 14                  -0.13        2.48272
              O 1  -- O 18                  -0.13        2.48308
              O 8  -- O 22                  -0.13        2.48374
              O 3  -- O 11                  -0.12        2.52047
              O 4  -- O 8                   -0.12        2.52128
              O 17 -- O 21                  -0.12        2.52133
              O 2  -- O 10                  -0.12        2.52140
              O 5  -- O 9                   -0.12        2.52174
              O 1  -- O 12                  -0.12        2.52281
              O 6  -- O 7                   -0.12        2.52311
              O 14 -- O 22                  -0.12        2.52313
              O 15 -- O 23                  -0.12        2.52401
              O 16 -- O 20                  -0.12        2.52429
              O 13 -- O 24                  -0.12        2.52515
              O 18 -- O 19                  -0.12        2.52564
              O 12 -- O 18                  -0.11        2.55880
              O 6  -- O 24                  -0.11        2.55899
              O 4  -- O 22                  -0.11        2.55940
              O 11 -- O 17                  -0.11        2.56127
              O 7  -- O 13                  -0.11        2.56208
              O 10 -- O 16                  -0.11        2.56212
              O 1  -- O 19                  -0.11        2.56221
              O 3  -- O 21                  -0.11        2.56235
              O 5  -- O 23                  -0.11        2.56271
              O 9  -- O 15                  -0.11        2.56294
              O 2  -- O 20                  -0.11        2.56353
              O 8  -- O 14                  -0.11        2.56356
              O 19 -- O 20                  -0.04        2.64932
              O 14 -- O 15                  -0.04        2.65001
              O 17 -- O 18                  -0.04        2.65188
              O 13 -- O 14                  -0.04        2.65232
              O 20 -- O 21                  -0.04        2.65257
              O 22 -- O 23                  -0.04        2.65299
              O 22 -- O 24                  -0.04        2.65394
              O 19 -- O 21                  -0.04        2.65481
              O 23 -- O 24                  -0.04        2.65485
              O 16 -- O 18                  -0.04        2.65616
              O 16 -- O 17                  -0.04        2.65670
              O 13 -- O 15                  -0.04        2.65890
              O 9  -- O 21                  -0.03        2.71954
              O 10 -- O 22                  -0.03        2.71970
              O 7  -- O 19                  -0.03        2.72118
              O 8  -- O 20                  -0.03        2.72120
              O 6  -- O 18                  -0.03        2.72208
              O 2  -- O 14                  -0.03        2.72216
              O 12 -- O 24                  -0.03        2.72239
              O 3  -- O 15                  -0.03        2.72293
              O 4  -- O 16                  -0.03        2.72334
              O 11 -- O 23                  -0.03        2.72380
              O 1  -- O 13                  -0.03        2.72467
              O 5  -- O 17                  -0.03        2.72772
              O 7  -- O 8                   -0.03        2.78575
              O 1  -- O 3                   -0.03        2.78989
              O 11 -- O 12                  -0.03        2.78994
              O 5  -- O 6                   -0.03        2.79071
              O 10 -- O 11                  -0.03        2.79096
              O 2  -- O 3                   -0.03        2.79131
              O 7  -- O 9                   -0.03        2.79135
              O 10 -- O 12                  -0.03        2.79183
              O 4  -- O 5                   -0.03        2.79254
              O 8  -- O 9                   -0.03        2.79255
              O 4  -- O 6                   -0.03        2.79490
              O 1  -- O 2                   -0.03        2.79500
              O 6  -- O 16                  -0.02        2.87863
              O 5  -- O 18                  -0.02        2.88134
              O 2  -- O 13                  -0.02        2.88262
              O 8  -- O 19                  -0.02        2.88317
              O 1  -- O 15                  -0.02        2.88361
              O 3  -- O 14                  -0.02        2.88533
              O 11 -- O 24                  -0.02        2.88689
              O 4  -- O 17                  -0.02        2.88693
              O 10 -- O 23                  -0.02        2.88730
              O 12 -- O 22                  -0.02        2.88860
              O 7  -- O 21                  -0.02        2.88958
              O 9  -- O 20                  -0.02        2.89150
              O 5  -- O 11                  -0.01        2.91670
              O 3  -- O 9                   -0.01        2.91759
              O 6  -- O 12                  -0.01        2.91762
              O 4  -- O 10                  -0.01        2.91988
              O 1  -- O 7                   -0.01        2.92551
              O 2  -- O 8                   -0.01        2.92601
              Li 1 -- Ti 1                  -0.20        2.98263
              Li 2 -- Ti 2                  -0.20        2.98601
              Li 1 -- Ti 3                  -0.20        2.98677
              Li 2 -- Ti 4                  -0.20        2.98680
======================================================================


Writing analysis data to ml_dos.castep_bin

Writing model to ml_dos.check
 
 A BibTeX formatted list of references used in this run has been written to 
 ml_dos.bib
 
Initialisation time =     11.16 s
Calculation time    =   1422.36 s
Finalisation time   =      2.56 s
Total time          =   1436.08 s
Peak Memory Use     = 3036004 kB
 
Overall parallel efficiency rating: Satisfactory (62%)
 
Data was distributed by:-
G-vector (3-way); efficiency rating: Satisfactory (64%)
k-point (4-way); efficiency rating: Excellent (97%)
