 +-------------------------------------------------+
 |                                                 |
 |      CCC   AA    SSS  TTTTT  EEEEE  PPPP        |
 |     C     A  A  S       T    E      P   P       |
 |     C     AAAA   SS     T    EEE    PPPP        |
 |     C     A  A     S    T    E      P           |
 |      CCC  A  A  SSS     T    EEEEE  P           |
 |                                                 |
 +-------------------------------------------------+
 |                                                 |
 | Welcome to Academic Release CASTEP version 25.12|
 | Ab Initio Total Energy Program                  |
 |                                                 |
 | Authors:                                        |
 | M. Segall, M. Probert, C. Pickard, P. Hasnip,   |
 | S. Clark, K. Refson, J. R. Yates,               |
 | A. Bartok-Partay, M. Payne                      |
 |                                                 |
 | Contributors:                                   |
 | P. Lindan, P. Haynes, J. White, V. Milman,      |
 | N. Govind, M. Gibson, P. Tulip, V. Cocula,      |
 | B. Montanari, D. Quigley, M. Glover,            |
 | L. Bernasconi, A. Perlov, M. Plummer,           |
 | E. McNellis, J. Meyer, J. Gale, D. Jochym       |
 | J. Aarons, B. Walker, R. Gillen, D. Jones       |
 | T. Green, I. J. Bush, C. J. Armstrong,          |
 | E. J. Higgins, E. L. Brown, M. S. McFly,        |
 | J. Wilkins, B-C. Shih, P. J. P. Byrne,          |
 | R. J. Maurer, J. C. Womack, J. Dziedzic,        |
 | L. LeBlanc, T. K. Stenczel, J. Kermode,         |
 | S. Sturniolo, B. Shi, B. Durham, M. Evans,      |
 | M. J. Smith, A. Tamerus, Z. Hawkhead,           |
 | V. Ravindran, T. Hollins, S. A. Joyce,          |
 | R. T. Strong, A. M. Reilly, S. J. Donaldson,    |
 | J. C. A. Prentice                               |
 |                                                 |
 | Copyright (c) 2000 - 2024                       |
 |                                                 |
 |     Distributed under license from Cambridge    |
 |     Enterprise for academic use only.           |
 |                                                 |
 | Please cite                                     |
 |                                                 |
 |     "First principles methods using CASTEP"     |
 |                                                 |
 |         Zeitschrift fuer Kristallographie       |
 |           220(5-6) pp. 567-570 (2005)           |
 |                                                 |
 | S. J. Clark, M. D. Segall, C. J. Pickard,       |
 | P. J. Hasnip, M. J. Probert, K. Refson,         |
 | M. C. Payne                                     |
 |                                                 |
 |       in all publications arising from          |
 |              your use of CASTEP                 |
 |                                                 |
 +-------------------------------------------------+
 |                                                 |
 |              http://www.castep.org              |
 |                                                 |
 +-------------------------------------------------+



 Compiled for linux_x86_64_gfortran10 on Sun, 13 Jul 2025 14:49:40 -0400
 from code version git version unavailable
 Compiler: GNU Fortran 13.3.0; Optimisation: fast
 Comms   : Open MPI v5.0.3
 MATHLIBS: flexiblas (IMKL) (LAPACK version 3.12.0)
 FFT Lib : fftw3 version fftw-3.3.10-sse2-avx-avx2-avx2_128
 Fundamental constants values: CODATA 2018

 Run started: Thu, 19 Feb 2026 23:02:56 -0500
 Warning in parameters_read: presetting of magnetic moments on atoms cannot be guaranteed when metals_method /= density mixing

 Atomic calculation performed for Li: 1s2 2s1

 Converged in 47 iterations to an ae energy of -202.784 eV

   ============================================================                
   | Pseudopotential Report - Date of generation 19-02-2026   |                
   ------------------------------------------------------------                
   | Element: Li Ionic charge:  3.00 Level of theory: PBE     |                
   | Atomic Solver: Koelling-Harmon                           |                
   |                                                          |                
   |               Reference Electronic Structure             |                
   |         Orbital         Occupation         Energy        |                
   |            1s              2.000           -1.906        |                
   |            2s              1.000           -0.106        |                
   |                                                          |                
   |                 Pseudopotential Definition               |                
   |        Beta     l      e      Rc     scheme   norm       |                
   |          1      0   -1.906   1.001     qc      0         |                
   |          2      0   -0.106   1.001     qc      0         |                
   |          3      0    0.250   1.001     qc      0         |                
   |         loc     1    0.000   1.001     pn      0         |                
   |                                                          |                
   | Augmentation charge Rinner = 0.699                       |                
   | No partial core correction                               |                
   ------------------------------------------------------------                
   | "1|1.0|14|16|18|10U:20(qc=7)"                            |                
   ------------------------------------------------------------                
   |      Author: Chris J. Pickard, Cambridge University      |                
   ============================================================                

 Atomic calculation performed for O: 1s2 2s2 2p4

 Converged in 61 iterations to an ae energy of -2040.902 eV

   ============================================================                
   | Pseudopotential Report - Date of generation 19-02-2026   |                
   ------------------------------------------------------------                
   | Element: O Ionic charge:  6.00 Level of theory: PBE      |                
   | Atomic Solver: Koelling-Harmon                           |                
   |                                                          |                
   |               Reference Electronic Structure             |                
   |         Orbital         Occupation         Energy        |                
   |            2s              2.000           -0.881        |                
   |            2p              4.000           -0.332        |                
   |                                                          |                
   |                 Pseudopotential Definition               |                
   |        Beta     l      e      Rc     scheme   norm       |                
   |          1      0   -0.881   1.100     qc      0         |                
   |          2      0    0.250   1.100     qc      0         |                
   |          3      1   -0.332   1.100     qc      0         |                
   |          4      1    0.250   1.100     qc      0         |                
   |         loc     2    0.000   1.100     pn      0         |                
   |                                                          |                
   | Augmentation charge Rinner = 0.769                       |                
   | Partial core correction Rc = 0.769                       |                
   ------------------------------------------------------------                
   | "2|1.1|17|20|23|20:21(qc=8)"                             |                
   ------------------------------------------------------------                
   |      Author: Chris J. Pickard, Cambridge University      |                
   ============================================================                

 Atomic calculation performed for P: 1s2 2s2 2p6 3s2 3p3

 Converged in 56 iterations to an ae energy of -9303.626 eV

   ============================================================                
   | Pseudopotential Report - Date of generation 19-02-2026   |                
   ------------------------------------------------------------                
   | Element: P Ionic charge:  5.00 Level of theory: PBE      |                
   | Atomic Solver: Koelling-Harmon                           |                
   |                                                          |                
   |               Reference Electronic Structure             |                
   |         Orbital         Occupation         Energy        |                
   |            3s              2.000           -0.513        |                
   |            3p              3.000           -0.202        |                
   |                                                          |                
   |                 Pseudopotential Definition               |                
   |        Beta     l      e      Rc     scheme   norm       |                
   |          1      0   -0.513   1.807     qc      0         |                
   |          2      0    0.250   1.807     qc      0         |                
   |          3      1   -0.202   1.807     qc      0         |                
   |          4      1    0.250   1.807     qc      0         |                
   |          5      2    0.000   1.807     qc      0         |                
   |          6      2    0.250   1.807     qc      0         |                
   |         loc     3    0.000   1.807     pn      0         |                
   |                                                          |                
   | Augmentation charge Rinner = 1.263                       |                
   | Partial core correction Rc = 1.263                       |                
   ------------------------------------------------------------                
   | "3|1.8|4|4|5|30:31:32"                                   |                
   ------------------------------------------------------------                
   |      Author: Chris J. Pickard, Cambridge University      |                
   ============================================================                

 Atomic calculation performed for Fe: 1s2 2s2 2p6 3s2 3p6 3d6 4s2

 Converged in 96 iterations to an ae energy of -34625.102 eV

   ============================================================                
   | Pseudopotential Report - Date of generation 19-02-2026   |                
   ------------------------------------------------------------                
   | Element: Fe Ionic charge:  8.00 Level of theory: PBE     |                
   | Atomic Solver: Koelling-Harmon                           |                
   |                                                          |                
   |               Reference Electronic Structure             |                
   |         Orbital         Occupation         Energy        |                
   |            3d              6.000           -0.276        |                
   |            4s              2.000           -0.194        |                
   |                                                          |                
   |                 Pseudopotential Definition               |                
   |        Beta     l      e      Rc     scheme   norm       |                
   |          1      0   -0.194   2.399     qc      0         |                
   |          2      0    0.250   2.399     qc      0         |                
   |          3      1    0.000   2.399     qc      0         |                
   |          4      1    0.250   2.399     qc      0         |                
   |          5      2   -0.276   1.997     qc      0         |                
   |          6      2    0.250   1.997     qc      0         |                
   |         loc     3    0.000   2.399     pn      0         |                
   |                                                          |                
   | Augmentation charge Rinner = 1.000                       |                
   | Partial core correction Rc = 1.000                       |                
   ------------------------------------------------------------                
   | "3|2.4|2.4|1.0|8|9|10|40:41:32U2U2(qc=5.5)"              |                
   ------------------------------------------------------------                
   |      Author: Chris J. Pickard, Cambridge University      |                
   ============================================================                

 Pseudo atomic calculation performed for Li 1s2 2s1

 Converged in 18 iterations to a total energy of -200.5098 eV

 Pseudo atomic calculation performed for O 2s2 2p4

 Converged in 24 iterations to a total energy of -432.3399 eV

 Pseudo atomic calculation performed for P 3s2 3p3

 Converged in 18 iterations to a total energy of -214.2237 eV

 Pseudo atomic calculation performed for Fe 3d6 4s2

 Converged in 34 iterations to a total energy of -853.8318 eV
 Calculation parallelised over 20 processes.
 Data is distributed by k-point(20-way)

 ************************************ Title ************************************
 

 ***************************** General Parameters ******************************
  
 output verbosity                               : normal  (1)
 write checkpoint data to                       : ml_dos.check
 type of calculation                            : Electronic Spectroscopy
 stress calculation                             : off
 density difference calculation                 : off
 electron localisation func (ELF) calculation   : off
 Hirshfeld analysis                             : off
 polarisation (Berry phase) analysis            : off
 molecular orbital projected DOS                : off
 deltaSCF calculation                           : off
 unlimited duration calculation
 timing information                             : on
 memory usage estimate                          : on
 write extra output files                       : on
 write final potential to formatted file        : off
 write final density to formatted file          : off
 write BibTeX reference list                    : on
 write OTFG pseudopotential files               : on
 write electrostatic potential file             : on
 write bands file                               : on
 checkpoint writing                             : both castep_bin and check files
  
 output         length unit                     : A
 output           mass unit                     : amu
 output           time unit                     : ps
 output         charge unit                     : e
 output           spin unit                     : hbar/2
 output         energy unit                     : eV
 output          force unit                     : eV/A
 output       velocity unit                     : A/ps
 output       pressure unit                     : GPa
 output     inv_length unit                     : 1/A
 output      frequency unit                     : cm-1
 output force constant unit                     : eV/A**2
 output         volume unit                     : A**3
 output   IR intensity unit                     : (D/A)**2/amu
 output         dipole unit                     : D
 output         efield unit                     : eV/A/e
 output        entropy unit                     : J/mol/K
 output    efield chi2 unit                     : pm/V
  
 wavefunctions paging                           : none
 random number generator seed                   :  230256271
 data distribution                              : optimal for this architecture
 optimization strategy                          : balance speed and memory

 *********************** Exchange-Correlation Parameters ***********************
  
 using functional                               : Perdew Burke Ernzerhof
 relativistic treatment                         : Koelling-Harmon
 DFT+D: Semi-empirical dispersion correction    : off

 ************************* Pseudopotential Parameters **************************
  
 pseudopotential representation                 : reciprocal space
 <beta|phi> representation                      : reciprocal space
 spin-orbit coupling                            : off

 **************************** Basis Set Parameters *****************************
  
 plane wave basis set cut-off                   :   900.0000   eV
 size of standard grid                          :     2.0000
 size of   fine   gmax                          :    30.7390   1/A
 finite basis set correction                    : none

 **************************** Electronic Parameters ****************************
  
 number of  electrons                           :  160.0    
 net charge of system                           :  0.000    
 net spin   of system                           :  0.000    
 number of  up  spins                           :  80.00    
 number of down spins                           :  80.00    
 treating system as spin-polarized
 number of bands                                :         96
 electron temperature                           :     0.0000   K

 ********************* Electronic Minimization Parameters **********************
  
 Method: Treating system as metallic with ensemble DFT treatment of electrons,
         and number of  SD  steps               :          1
         and number of  CG  steps               :          4
  
 total energy / atom convergence tol.           : 0.1000E-05   eV
 max force / atom convergence tol.              : ignored
 convergence tolerance window                   :          3   cycles
 max. number of SCF cycles                      :        100
 number of fixed-spin iterations                :         10
 smearing scheme                                : Gaussian
 smearing width                                 : 0.2000       eV
 Fermi energy convergence tolerance             : 0.2721E-13   eV
 number of occupancy cycles                     :          6
 periodic dipole correction                     : NONE

 *********************** Population Analysis Parameters ************************
  
 Population analysis with cutoff                :  3.000       A
 Population analysis output                     : summary and pdos components
 Partial DOS weights calculated

 ********************* Electronic Spectroscopy Parameters **********************
  
 electronic spectroscopy with theory level      : DFT       
 spectroscopy calculation                       : density of states
 max. number of iterations                      :         60
 max. steps per iteration                       :          5
 number of bands / k-point                      :        145
 band convergence tolerance                     : 0.1000E-05   eV
 write orbitals file                            : off

 *******************************************************************************
  

                           -------------------------------
                                      Unit Cell
                           -------------------------------
        Real Lattice(A)                      Reciprocal Lattice(1/A)
    10.4729150     0.0000000     0.0000000        0.599946176   0.000093619   0.000002537
    -0.0009490     6.0815470     0.0000000        0.000000000   1.033155759   0.000048630
    -0.0000200    -0.0002230     4.7376590        0.000000000   0.000000000   1.326221517

                       Lattice parameters(A)       Cell Angles
                    a =     10.472915          alpha =   90.002697
                    b =      6.081547          beta  =   90.000242
                    c =      4.737659          gamma =   90.008941

                       Current cell volume =           301.748726       A**3
                                   density =             2.091241   AMU/A**3
                                           =             3.472588     g/cm^3

                           -------------------------------
                                     Cell Contents
                           -------------------------------
                         Total number of ions in cell =   28
                      Total number of species in cell =    4
                        Max number of any one species =   16

            xxxxxxxxxxxxxxxxxxxxxxxxxxxxxxxxxxxxxxxxxxxxxxxxxxxxxxxxxxxx
            x  Element    Atom        Fractional coordinates of atoms  x
            x            Number           u          v          w      x
            x----------------------------------------------------------x
            x  Li           1         0.499988   0.000048   0.499771   x 
            x  Li           2         0.000113   0.499768   0.999943   x 
            x  Li           3         0.500070   0.499862   0.500136   x 
            x  Li           4         0.000010   0.000097   0.000321   x 
            x  O            1         0.596800   0.249877   0.756838   x 
            x  O            2         0.096560   0.249884   0.743023   x 
            x  O            3         0.403276   0.750221   0.243163   x 
            x  O            4         0.903426   0.750195   0.256905   x 
            x  O            5         0.956230   0.249766   0.294752   x 
            x  O            6         0.456120   0.249726   0.205296   x 
            x  O            7         0.043719   0.750221   0.705328   x 
            x  O            8         0.543916   0.750242   0.794621   x 
            x  O            9         0.663909   0.046501   0.215498   x 
            x  O           10         0.163600   0.453359   0.284493   x 
            x  O           11         0.336218   0.546640   0.784528   x 
            x  O           12         0.836274   0.953488   0.715461   x 
            x  O           13         0.336139   0.953471   0.784429   x 
            x  O           14         0.836309   0.546703   0.715364   x 
            x  O           15         0.663816   0.453315   0.215555   x 
            x  O           16         0.163727   0.046550   0.284498   x 
            x  P            1         0.593615   0.249852   0.081479   x 
            x  P            2         0.093445   0.249924   0.418518   x 
            x  P            3         0.406395   0.750138   0.918433   x 
            x  P            4         0.906528   0.750160   0.581417   x 
            x  Fe           1         0.780141   0.249741   0.522263   x 
            x  Fe           2         0.279961   0.249743   0.977748   x 
            x  Fe           3         0.219804   0.750244   0.477910   x 
            x  Fe           4         0.719891   0.750262   0.022313   x 
            xxxxxxxxxxxxxxxxxxxxxxxxxxxxxxxxxxxxxxxxxxxxxxxxxxxxxxxxxxxx


                         No user defined ionic velocities

                           -------------------------------
                                   Details of Species
                           -------------------------------

                               Mass of species in AMU
                                    Li    6.9410000
                                    O   15.9994000
                                    P   30.9737600
                                    Fe   55.8450000

                          Electric Quadrupole Moment (Barn)
                                    Li   -0.0401000 Isotope   7
                                    O   -0.0255800 Isotope  17
                                    P    1.0000000 No Isotope Defined
                                    Fe    0.1600000 Isotope  57
         xxxxxxxxxxxxxxxxxxxxxxxxxxxxxxxxxxxxxxxxxxxxxxxxxxxxxxxxxxxxxxxxxxxxxx
         |  Element    Atom         Initial            Initial magnetic       |
         |            Number    spin polarization        moment (uB)     Fix? |
         |--------------------------------------------------------------------|
         | Li             1         0.000000              0.000       F       |
         | Li             2         0.000000              0.000       F       |
         | Li             3         0.000000              0.000       F       |
         | Li             4         0.000000              0.000       F       |
         | O              1         0.000000              0.000       F       |
         | O              2         0.000000              0.000       F       |
         | O              3         0.000000              0.000       F       |
         | O              4         0.000000              0.000       F       |
         | O              5         0.000000              0.000       F       |
         | O              6         0.000000              0.000       F       |
         | O              7         0.000000              0.000       F       |
         | O              8         0.000000              0.000       F       |
         | O              9         0.000000              0.000       F       |
         | O             10         0.000000              0.000       F       |
         | O             11         0.000000              0.000       F       |
         | O             12         0.000000              0.000       F       |
         | O             13         0.000000              0.000       F       |
         | O             14         0.000000              0.000       F       |
         | O             15         0.000000              0.000       F       |
         | O             16         0.000000              0.000       F       |
         | P              1         0.000000              0.000       F       |
         | P              2         0.000000              0.000       F       |
         | P              3         0.000000              0.000       F       |
         | P              4         0.000000              0.000       F       |
         | Fe             1         0.562500              4.500       F       |
         | Fe             2        -0.562500             -4.500       F       |
         | Fe             3         0.562500              4.500       F       |
         | Fe             4        -0.562500             -4.500       F       |
         xxxxxxxxxxxxxxxxxxxxxxxxxxxxxxxxxxxxxxxxxxxxxxxxxxxxxxxxxxxxxxxxxxxxxx



         Quantisation axis:    0.00000   0.00000   1.00000

         Units for Hubbard U values are eV
         xxxxxxxxxxxxxxxxxxxxxxxxxxxxxxxxxxxxxxxxxxxxxxxxxxxxxxxxxxxxxxxxxxxx
         |  Element     Atom     Hubbard U   values by orbital type         |
         |             Number      s          p          d          f       |
         |------------------------------------------------------------------|
         |Li            1         0.00000    0.00000    0.00000    0.00000  |
         |Li            2         0.00000    0.00000    0.00000    0.00000  |
         |Li            3         0.00000    0.00000    0.00000    0.00000  |
         |Li            4         0.00000    0.00000    0.00000    0.00000  |
         |O             1         0.00000    0.00000    0.00000    0.00000  |
         |O             2         0.00000    0.00000    0.00000    0.00000  |
         |O             3         0.00000    0.00000    0.00000    0.00000  |
         |O             4         0.00000    0.00000    0.00000    0.00000  |
         |O             5         0.00000    0.00000    0.00000    0.00000  |
         |O             6         0.00000    0.00000    0.00000    0.00000  |
         |O             7         0.00000    0.00000    0.00000    0.00000  |
         |O             8         0.00000    0.00000    0.00000    0.00000  |
         |O             9         0.00000    0.00000    0.00000    0.00000  |
         |O            10         0.00000    0.00000    0.00000    0.00000  |
         |O            11         0.00000    0.00000    0.00000    0.00000  |
         |O            12         0.00000    0.00000    0.00000    0.00000  |
         |O            13         0.00000    0.00000    0.00000    0.00000  |
         |O            14         0.00000    0.00000    0.00000    0.00000  |
         |O            15         0.00000    0.00000    0.00000    0.00000  |
         |O            16         0.00000    0.00000    0.00000    0.00000  |
         |P             1         0.00000    0.00000    0.00000    0.00000  |
         |P             2         0.00000    0.00000    0.00000    0.00000  |
         |P             3         0.00000    0.00000    0.00000    0.00000  |
         |P             4         0.00000    0.00000    0.00000    0.00000  |
         |Fe            1         0.00000    0.00000    4.40000    0.00000  |
         |Fe            2         0.00000    0.00000    4.40000    0.00000  |
         |Fe            3         0.00000    0.00000    4.40000    0.00000  |
         |Fe            4         0.00000    0.00000    4.40000    0.00000  |
         xxxxxxxxxxxxxxxxxxxxxxxxxxxxxxxxxxxxxxxxxxxxxxxxxxxxxxxxxxxxxxxxxxxx


                          Files used for pseudopotentials:
                                    Li 1|1.0|14|16|18|10U:20(qc=7)
                                    O 2|1.1|17|20|23|20:21(qc=8)
                                    P 3|1.8|4|4|5|30:31:32
                                    Fe 3|2.4|2.4|1.0|8|9|10|40:41:32U2U2(qc=5.5)

                           -------------------------------
                              k-Points For BZ Sampling
                           -------------------------------
                       MP grid size for SCF calculation is  2  4  5
                            with an offset of   0.000  0.000  0.000
                       Number of kpoints used =            20

                           -------------------------------
                               Symmetry and Constraints
                           -------------------------------

                      Maximum deviation from symmetry =  0.00000         ANG

                      Number of symmetry operations   =           1
                      Number of ionic constraints     =           3
                      Point group of crystal =     1: C1, 1, 1
                      Space group of crystal =     1: P1, P 1

             Set iprint > 1 for details on symmetry rotations/translations

                         Centre of mass is constrained
             Set iprint > 2 for details of linear ionic constraints

                         Number of cell constraints= 0
                         Cell constraints are:  1 2 3 4 5 6

                         External pressure/stress (GPa)
                          0.00000   0.00000   0.00000
                                    0.00000   0.00000
                                              0.00000
 
+---------------- MEMORY AND SCRATCH DISK ESTIMATES PER PROCESS --------------+
|                                                     Memory          Disk    |
| Baseline code, static data and system overhead      809.0 MB         0.0 MB |
| BLAS internal memory storage                          0.0 MB         0.0 MB |
| Model and support data                             1443.1 MB         0.0 MB |
| Electronic energy minimisation requirements         335.8 MB         0.0 MB |
| Force calculation requirements                       68.8 MB         0.0 MB |
|                                               ----------------------------- |
| Approx. total storage required per process         2587.9 MB         0.0 MB |
|                                                                             |
| Requirements will fluctuate during execution and may exceed these estimates |
+-----------------------------------------------------------------------------+
Calculating approximate eigenstates for fixed initial Hamiltonian
Cut-off for approx. calculation is   89.988 eV
Improving approx. states at cut-off of  450.000 eV
Resetting cut-off to  900.000 eV
Improving states further at cut-off of  900.000 eV
Calculating total energy with cut-off of  900.000 eV.

 Pseudo atomic calculation performed for Li 1s2 2s1

 Converged in 18 iterations to a total energy of -200.5098 eV

 Pseudo atomic calculation performed for O 2s2 2p4

 Converged in 24 iterations to a total energy of -432.3399 eV

 Pseudo atomic calculation performed for P 3s2 3p3

 Converged in 18 iterations to a total energy of -214.2237 eV

 Pseudo atomic calculation performed for Fe 3d6 4s2

 Converged in 34 iterations to a total energy of -853.8318 eV
------------------------------------------------------------------------ <-- SCF
SCF loop      Energy           Fermi           Energy gain       Timer   <-- SCF
                               energy          per atom          (sec)   <-- SCF
------------------------------------------------------------------------ <-- SCF
Initial  -1.20763468E+004  5.47653617E+000                        69.94  <-- SCF
      1  -1.21851697E+004  6.17064553E+000   3.88653097E+000     299.83  <-- SCF
      2  -1.21865550E+004  6.34894200E+000   4.94762995E-002     558.91  <-- SCF
      3  -1.21865809E+004  6.36561218E+000   9.22153575E-004     711.29  <-- SCF
      4  -1.21865822E+004  6.36691208E+000   4.77829261E-005     859.36  <-- SCF
      5  -1.21865825E+004  6.36691208E+000   9.33975307E-006    1016.76  <-- SCF
      6  -1.21865826E+004  6.36691208E+000   4.04472719E-006    1169.26  <-- SCF
      7  -1.21865827E+004  6.36691208E+000   4.35596645E-006    1325.22  <-- SCF
      8  -1.21865828E+004  6.36691208E+000   2.95898322E-006    1477.49  <-- SCF
      9  -1.21865828E+004  6.36691208E+000   6.91017585E-007    1637.12  <-- SCF
     10  -1.21869420E+004  5.51247657E+000   1.28282239E-002    1818.08  <-- SCF
     11  -1.21871059E+004  5.71722225E+000   5.85305359E-003    1990.93  <-- SCF
     12  -1.21871080E+004  5.72403288E+000   7.69341575E-005    2138.14  <-- SCF
     13  -1.21871094E+004  5.72546739E+000   4.75581787E-005    2373.28  <-- SCF
     14  -1.21871194E+004  5.72968747E+000   3.58149915E-004    2631.70  <-- SCF
     15  -1.21871797E+004  5.74605047E+000   2.15298122E-003    2887.25  <-- SCF
     16  -1.21873394E+004  5.76594390E+000   5.70344397E-003    3055.80  <-- SCF
     17  -1.21875348E+004  5.85486084E+000   6.97985560E-003    3232.41  <-- SCF
     18  -1.21876878E+004  5.82783849E+000   5.46283316E-003    3391.01  <-- SCF
     19  -1.21877316E+004  5.80525320E+000   1.56664570E-003    3548.09  <-- SCF
     20  -1.21877395E+004  5.80233335E+000   2.79859827E-004    3719.33  <-- SCF
     21  -1.21877406E+004  5.80248600E+000   4.07642540E-005    3878.35  <-- SCF
     22  -1.21877408E+004  5.80283482E+000   6.03536403E-006    4039.76  <-- SCF
     23  -1.21877408E+004  5.80282204E+000   7.43699259E-007    4205.43  <-- SCF
     24  -1.21877408E+004  5.80281776E+000   1.03635087E-007    4367.93  <-- SCF
------------------------------------------------------------------------ <-- SCF
 
Integrated Spin Density     =    0.175824E-12 hbar/2
Integrated |Spin Density|   =     15.7237     hbar/2
 

     Hubbard U occupation numbers
     ----------------------------
Species   Ion   l  spin               occupancies
==================================================================
  Fe       1    2   up:   1.00  1.00  1.00  1.00  1.00
                    dn:   0.04  0.06  0.14  0.15  0.99
  Fe       2    2   up:   0.04  0.06  0.14  0.15  0.99
                    dn:   1.00  1.00  1.00  1.00  1.00
  Fe       3    2   up:   1.00  1.00  1.00  1.00  1.00
                    dn:   0.04  0.06  0.14  0.15  0.99
  Fe       4    2   up:   0.04  0.06  0.14  0.15  0.99
                    dn:   1.00  1.00  1.00  1.00  1.00
==================================================================

Final energy, E             =  -12187.74079226     eV
Final free energy (E-TS)    =  -12187.74079226     eV
(energies not corrected for finite basis set)
 
NB est. 0K energy (E-0.5TS)      =  -12187.74079226     eV
 

Writing analysis data to ml_dos.castep_bin

Writing model to ml_dos.check
 
+---------------- MEMORY AND SCRATCH DISK ESTIMATES PER PROCESS --------------+
|                                                     Memory          Disk    |
|                                               ----------------------------- |
| Approx. total storage required per process         1624.6 MB         0.0 MB |
|                                                                             |
| Requirements will fluctuate during execution and may exceed these estimates |
+-----------------------------------------------------------------------------+
 
  =====================================================================
  +                                                                   +
  +                 Calculation of Spectral Properties                +
  +                                                                   +
  + Calculation re-parallelised over 20 processes.                    +
  + There are 20 k-points distributed across 20 k-point groups.       +
  + Data distributed by G-vector(1-way), k-point(20-way), band(1-way) +
  + Data distributed by k-point(20-way)                               +
  +                                                                   +
  =====================================================================

 Pseudo atomic calculation performed for Li 1s2 2s1

 Converged in 18 iterations to a total energy of -200.5098 eV

 Pseudo atomic calculation performed for O 2s2 2p4

 Converged in 24 iterations to a total energy of -432.3399 eV

 Pseudo atomic calculation performed for P 3s2 3p3

 Converged in 18 iterations to a total energy of -214.2237 eV

 Pseudo atomic calculation performed for Fe 3d6 4s2

 Converged in 34 iterations to a total energy of -853.8318 eV

 Pseudo atomic calculation performed for Li 1s2 2s1

 Converged in 18 iterations to a total energy of -200.5098 eV

 Pseudo atomic calculation performed for O 2s2 2p4

 Converged in 24 iterations to a total energy of -432.3399 eV

 Pseudo atomic calculation performed for P 3s2 3p3

 Converged in 18 iterations to a total energy of -214.2237 eV

 Pseudo atomic calculation performed for Fe 3d6 4s2

 Converged in 34 iterations to a total energy of -853.8318 eV
  Starting k-point:        1 of        1 Time:      0.00 sec  |<-- SPEC

 Pseudo atomic calculation performed for Li 1s2 2s1

 Converged in 18 iterations to a total energy of -200.5098 eV

 Pseudo atomic calculation performed for O 2s2 2p4

 Converged in 24 iterations to a total energy of -432.3399 eV

 Pseudo atomic calculation performed for P 3s2 3p3

 Converged in 18 iterations to a total energy of -214.2237 eV

 Pseudo atomic calculation performed for Fe 3d6 4s2

 Converged in 34 iterations to a total energy of -853.8318 eV
  Starting k-point:        1 of        1 Time:     74.31 sec  |<-- SPEC

 Pseudo atomic calculation performed for Li 1s2 2s1

 Converged in 18 iterations to a total energy of -200.5098 eV

 Pseudo atomic calculation performed for O 2s2 2p4

 Converged in 24 iterations to a total energy of -432.3399 eV

 Pseudo atomic calculation performed for P 3s2 3p3

 Converged in 18 iterations to a total energy of -214.2237 eV

 Pseudo atomic calculation performed for Fe 3d6 4s2

 Converged in 34 iterations to a total energy of -853.8318 eV
  Check-pointing spectral run                                 |<-- SPEC
  Total time to compute matrix elements            147.78 sec |<-- SPEC
  
  + Calculation re-parallelised over 20 processes.                    +
  + Data distributed by k-point(20-way)                               +

 Pseudo atomic calculation performed for Li 1s2 2s1

 Converged in 18 iterations to a total energy of -200.5098 eV

 Pseudo atomic calculation performed for O 2s2 2p4

 Converged in 24 iterations to a total energy of -432.3399 eV

 Pseudo atomic calculation performed for P 3s2 3p3

 Converged in 18 iterations to a total energy of -214.2237 eV

 Pseudo atomic calculation performed for Fe 3d6 4s2

 Converged in 34 iterations to a total energy of -853.8318 eV

 ************************** Forces **************************
 *                                                          *
 *               Cartesian components (eV/A)                *
 * -------------------------------------------------------- *
 *                         x            y            z      *
 *                                                          *
 * Li              1     -0.00021     -0.00326      0.00173 *
 * Li              2     -0.00479      0.00622     -0.00277 *
 * Li              3      0.00027      0.00231     -0.00103 *
 * Li              4     -0.00371     -0.00602     -0.00444 *
 * O               1     -0.13789      0.00063      0.02340 *
 * O               2     -0.12411      0.00284      0.01088 *
 * O               3      0.12980     -0.00324     -0.03717 *
 * O               4      0.12684     -0.00150     -0.00762 *
 * O               5     -0.01785      0.00189     -0.18471 *
 * O               6      0.08104      0.00199      0.14767 *
 * O               7      0.02841     -0.00204      0.18108 *
 * O               8     -0.09366     -0.00247     -0.14785 *
 * O               9     -0.00306     -0.02206      0.02820 *
 * O              10      0.02315      0.04427     -0.02810 *
 * O              11     -0.01004     -0.03401     -0.02827 *
 * O              12     -0.01592      0.03829      0.03191 *
 * O              13     -0.00670      0.03213     -0.03117 *
 * O              14     -0.01707     -0.03941      0.02736 *
 * O              15      0.00182      0.02795      0.02205 *
 * O              16      0.01123     -0.03138     -0.02778 *
 * P               1     -0.04416      0.01555     -0.10028 *
 * P               2      0.02579      0.00112      0.10878 *
 * P               3      0.06535     -0.01203      0.12454 *
 * P               4     -0.03588     -0.01672     -0.10138 *
 * Fe              1      0.11802      0.01840      0.11339 *
 * Fe              2      0.12487      0.01619     -0.10691 *
 * Fe              3     -0.11388     -0.01553     -0.11502 *
 * Fe              4     -0.10765     -0.02011      0.10350 *
 *                                                          *
 ************************************************************

 Pseudo atomic calculation performed for Li 1s2 2s1

 Converged in 18 iterations to a total energy of -200.5098 eV

 Pseudo atomic calculation performed for O 2s2 2p4

 Converged in 24 iterations to a total energy of -432.3399 eV

 Pseudo atomic calculation performed for P 3s2 3p3

 Converged in 18 iterations to a total energy of -214.2237 eV

 Pseudo atomic calculation performed for Fe 3d6 4s2

 Converged in 34 iterations to a total energy of -853.8318 eV
Charge spilling parameter for spin component 1 = 0.85%
Charge spilling parameter for spin component 2 = 0.85%

                   Orbital Populations                  
  ---------------------------------------------------------------
     Ion    Atom   Orbital              Up        Down      Spin
  ---------------------------------------------------------------
     Li     1      S                    1.001     1.001     0.000
     Li     1      S                    0.025     0.024     0.001
     Li     1      Px                   0.037     0.038    -0.002
     Li     1      Py                   0.058     0.058    -0.000
     Li     1      Pz                   0.025     0.022     0.004
     Li     2      S                    1.001     1.001    -0.000
     Li     2      S                    0.024     0.025    -0.001
     Li     2      Px                   0.038     0.037     0.002
     Li     2      Py                   0.058     0.058     0.000
     Li     2      Pz                   0.022     0.025    -0.004
     Li     3      S                    1.001     1.001     0.000
     Li     3      S                    0.025     0.024     0.001
     Li     3      Px                   0.037     0.038    -0.002
     Li     3      Py                   0.058     0.058    -0.000
     Li     3      Pz                   0.025     0.022     0.004
     Li     4      S                    1.001     1.001    -0.000
     Li     4      S                    0.024     0.025    -0.001
     Li     4      Px                   0.038     0.037     0.002
     Li     4      Py                   0.058     0.058     0.000
     Li     4      Pz                   0.022     0.025    -0.004
      O     1      S                    0.930     0.927     0.003
      O     1      Px                   0.884     0.877     0.008
      O     1      Py                   0.900     0.895     0.005
      O     1      Pz                   0.766     0.765     0.001
      O     2      S                    0.927     0.930    -0.003
      O     2      Px                   0.877     0.884    -0.008
      O     2      Py                   0.895     0.900    -0.005
      O     2      Pz                   0.765     0.766    -0.001
      O     3      S                    0.930     0.927     0.003
      O     3      Px                   0.884     0.877     0.008
      O     3      Py                   0.900     0.895     0.005
      O     3      Pz                   0.766     0.765     0.001
      O     4      S                    0.927     0.930    -0.003
      O     4      Px                   0.877     0.884    -0.007
      O     4      Py                   0.895     0.900    -0.005
      O     4      Pz                   0.765     0.766    -0.001
      O     5      S                    0.931     0.927     0.004
      O     5      Px                   0.786     0.778     0.007
      O     5      Py                   0.902     0.898     0.004
      O     5      Pz                   0.867     0.863     0.004
      O     6      S                    0.927     0.931    -0.004
      O     6      Px                   0.778     0.785    -0.007
      O     6      Py                   0.898     0.902    -0.004
      O     6      Pz                   0.863     0.867    -0.003
      O     7      S                    0.931     0.927     0.004
      O     7      Px                   0.786     0.778     0.008
      O     7      Py                   0.902     0.898     0.004
      O     7      Pz                   0.867     0.863     0.004
      O     8      S                    0.927     0.931    -0.004
      O     8      Px                   0.777     0.785    -0.007
      O     8      Py                   0.898     0.901    -0.004
      O     8      Pz                   0.863     0.867    -0.003
      O     9      S                    0.928     0.930    -0.001
      O     9      Px                   0.872     0.874    -0.002
      O     9      Py                   0.809     0.813    -0.003
      O     9      Pz                   0.863     0.863    -0.000
      O    10      S                    0.930     0.928     0.001
      O    10      Px                   0.874     0.873     0.001
      O    10      Py                   0.813     0.809     0.003
      O    10      Pz                   0.863     0.863     0.000
      O    11      S                    0.928     0.930    -0.001
      O    11      Px                   0.872     0.874    -0.001
      O    11      Py                   0.809     0.812    -0.003
      O    11      Pz                   0.863     0.863    -0.000
      O    12      S                    0.930     0.928     0.001
      O    12      Px                   0.874     0.873     0.001
      O    12      Py                   0.813     0.809     0.003
      O    12      Pz                   0.863     0.863     0.000
      O    13      S                    0.928     0.930    -0.001
      O    13      Px                   0.872     0.874    -0.002
      O    13      Py                   0.809     0.813    -0.003
      O    13      Pz                   0.863     0.863    -0.000
      O    14      S                    0.930     0.928     0.001
      O    14      Px                   0.874     0.873     0.001
      O    14      Py                   0.813     0.809     0.003
      O    14      Pz                   0.863     0.863    -0.000
      O    15      S                    0.928     0.930    -0.001
      O    15      Px                   0.872     0.874    -0.002
      O    15      Py                   0.809     0.812    -0.003
      O    15      Pz                   0.863     0.863    -0.000
      O    16      S                    0.930     0.928     0.001
      O    16      Px                   0.874     0.872     0.002
      O    16      Py                   0.813     0.809     0.003
      O    16      Pz                   0.863     0.863     0.000
      P     1      S                    0.489     0.491    -0.002
      P     1      Px                   0.328     0.328    -0.000
      P     1      Py                   0.340     0.335     0.004
      P     1      Pz                   0.324     0.331    -0.008
      P     2      S                    0.490     0.488     0.002
      P     2      Px                   0.328     0.327     0.000
      P     2      Py                   0.335     0.340    -0.004
      P     2      Pz                   0.331     0.324     0.008
      P     3      S                    0.489     0.491    -0.002
      P     3      Px                   0.328     0.328    -0.000
      P     3      Py                   0.339     0.335     0.004
      P     3      Pz                   0.324     0.331    -0.008
      P     4      S                    0.490     0.488     0.002
      P     4      Px                   0.328     0.327     0.000
      P     4      Py                   0.335     0.340    -0.004
      P     4      Pz                   0.331     0.324     0.008
     Fe     1      Dzz                  1.003     0.810     0.193
     Fe     1      Dzy                  1.002     0.054     0.948
     Fe     1      Dzx                  1.003     0.132     0.871
     Fe     1      Dxx-yy               1.002     0.172     0.830
     Fe     1      Dxy                  1.004     0.050     0.954
     Fe     1      S                    0.185     0.140     0.044
     Fe     1      Px                   0.082     0.067     0.014
     Fe     1      Py                   0.088     0.065     0.023
     Fe     1      Pz                   0.051     0.038     0.013
     Fe     2      Dzz                  0.810     1.002    -0.192
     Fe     2      Dzy                  0.054     1.002    -0.948
     Fe     2      Dzx                  0.132     1.002    -0.871
     Fe     2      Dxx-yy               0.172     1.002    -0.830
     Fe     2      Dxy                  0.050     1.004    -0.954
     Fe     2      S                    0.140     0.185    -0.044
     Fe     2      Px                   0.068     0.082    -0.014
     Fe     2      Py                   0.065     0.088    -0.023
     Fe     2      Pz                   0.038     0.051    -0.013
     Fe     3      Dzz                  1.003     0.811     0.191
     Fe     3      Dzy                  1.003     0.054     0.948
     Fe     3      Dzx                  1.002     0.131     0.871
     Fe     3      Dxx-yy               1.002     0.171     0.831
     Fe     3      Dxy                  1.004     0.050     0.954
     Fe     3      S                    0.185     0.140     0.044
     Fe     3      Px                   0.082     0.067     0.014
     Fe     3      Py                   0.088     0.065     0.023
     Fe     3      Pz                   0.051     0.038     0.013
     Fe     4      Dzz                  0.811     1.003    -0.192
     Fe     4      Dzy                  0.054     1.003    -0.948
     Fe     4      Dzx                  0.131     1.002    -0.871
     Fe     4      Dxx-yy               0.172     1.002    -0.831
     Fe     4      Dxy                  0.050     1.004    -0.954
     Fe     4      S                    0.140     0.185    -0.044
     Fe     4      Px                   0.067     0.082    -0.014
     Fe     4      Py                   0.065     0.088    -0.023
     Fe     4      Pz                   0.038     0.051    -0.013
  ---------------------------------------------------------------
                           Total:      79.997    79.997    -0.000
  ---------------------------------------------------------------

     Atomic Populations (Mulliken)
     -----------------------------
Species          Ion Spin      s       p       d       f      Total   Charge(e)   Spin(hbar/2)
==============================================================================================
  Li              1   up:     1.026   0.120   0.000   0.000   1.146     0.711        0.003
                  1   dn:     1.025   0.118   0.000   0.000   1.143
  Li              2   up:     1.025   0.118   0.000   0.000   1.143     0.712       -0.003
                  2   dn:     1.025   0.120   0.000   0.000   1.145
  Li              3   up:     1.026   0.120   0.000   0.000   1.146     0.712        0.003
                  3   dn:     1.025   0.118   0.000   0.000   1.143
  Li              4   up:     1.024   0.118   0.000   0.000   1.143     0.712       -0.003
                  4   dn:     1.025   0.120   0.000   0.000   1.145
  O               1   up:     0.930   2.550   0.000   0.000   3.480    -0.943        0.017
                  1   dn:     0.927   2.537   0.000   0.000   3.463
  O               2   up:     0.927   2.536   0.000   0.000   3.463    -0.943       -0.017
                  2   dn:     0.930   2.551   0.000   0.000   3.480
  O               3   up:     0.930   2.550   0.000   0.000   3.480    -0.943        0.017
                  3   dn:     0.927   2.536   0.000   0.000   3.463
  O               4   up:     0.927   2.537   0.000   0.000   3.463    -0.944       -0.017
                  4   dn:     0.930   2.550   0.000   0.000   3.480
  O               5   up:     0.931   2.554   0.000   0.000   3.485    -0.952        0.019
                  5   dn:     0.927   2.539   0.000   0.000   3.466
  O               6   up:     0.927   2.539   0.000   0.000   3.466    -0.950       -0.018
                  6   dn:     0.931   2.553   0.000   0.000   3.484
  O               7   up:     0.931   2.554   0.000   0.000   3.485    -0.951        0.019
                  7   dn:     0.927   2.539   0.000   0.000   3.466
  O               8   up:     0.927   2.538   0.000   0.000   3.465    -0.950       -0.019
                  8   dn:     0.931   2.553   0.000   0.000   3.484
  O               9   up:     0.928   2.544   0.000   0.000   3.473    -0.952       -0.007
                  9   dn:     0.930   2.550   0.000   0.000   3.479
  O              10   up:     0.930   2.549   0.000   0.000   3.479    -0.952        0.006
                 10   dn:     0.928   2.544   0.000   0.000   3.473
  O              11   up:     0.928   2.545   0.000   0.000   3.473    -0.952       -0.006
                 11   dn:     0.930   2.549   0.000   0.000   3.479
  O              12   up:     0.930   2.550   0.000   0.000   3.479    -0.953        0.006
                 12   dn:     0.928   2.545   0.000   0.000   3.473
  O              13   up:     0.928   2.544   0.000   0.000   3.473    -0.952       -0.006
                 13   dn:     0.930   2.549   0.000   0.000   3.479
  O              14   up:     0.930   2.549   0.000   0.000   3.479    -0.952        0.006
                 14   dn:     0.928   2.545   0.000   0.000   3.473
  O              15   up:     0.928   2.544   0.000   0.000   3.473    -0.952       -0.006
                 15   dn:     0.930   2.549   0.000   0.000   3.479
  O              16   up:     0.930   2.549   0.000   0.000   3.479    -0.952        0.006
                 16   dn:     0.928   2.544   0.000   0.000   3.473
  P               1   up:     0.489   0.991   0.000   0.000   1.480     2.035       -0.005
                  1   dn:     0.491   0.995   0.000   0.000   1.485
  P               2   up:     0.490   0.994   0.000   0.000   1.484     2.037        0.005
                  2   dn:     0.488   0.991   0.000   0.000   1.479
  P               3   up:     0.489   0.991   0.000   0.000   1.480     2.035       -0.005
                  3   dn:     0.491   0.995   0.000   0.000   1.485
  P               4   up:     0.490   0.994   0.000   0.000   1.484     2.037        0.005
                  4   dn:     0.488   0.991   0.000   0.000   1.479
  Fe              1   up:     0.185   0.221   5.013   0.000   5.419     1.052        3.890
                  1   dn:     0.140   0.171   1.218   0.000   1.529
  Fe              2   up:     0.140   0.171   1.217   0.000   1.529     1.053       -3.890
                  2   dn:     0.185   0.221   5.013   0.000   5.418
  Fe              3   up:     0.185   0.221   5.013   0.000   5.419     1.052        3.890
                  3   dn:     0.140   0.171   1.218   0.000   1.529
  Fe              4   up:     0.140   0.171   1.218   0.000   1.529     1.052       -3.890
                  4   dn:     0.185   0.221   5.013   0.000   5.419
==============================================================================================

                 Bond                   Population        Spin       Length (A)
================================================================================
              O 2  -- P 2                    0.66        -0.00          1.53774
              O 4  -- P 4                    0.66        -0.00          1.53777
              O 1  -- P 1                    0.66         0.00          1.53840
              O 3  -- P 3                    0.66         0.00          1.53881
              O 5  -- P 2                    0.67         0.00          1.55206
              O 7  -- P 4                    0.67         0.00          1.55209
              O 6  -- P 1                    0.67        -0.00          1.55487
              O 8  -- P 3                    0.67        -0.00          1.55512
              O 10 -- P 2                    0.62        -0.00          1.57272
              O 11 -- P 3                    0.62         0.00          1.57285
              O 12 -- P 4                    0.62        -0.00          1.57287
              O 13 -- P 3                    0.62         0.00          1.57287
              O 14 -- P 4                    0.62        -0.00          1.57299
              O 15 -- P 1                    0.62         0.00          1.57313
              O 9  -- P 1                    0.62         0.00          1.57317
              O 16 -- P 2                    0.62        -0.00          1.57318
              O 9  -- Fe 4                   0.27         0.02          2.10412
              O 12 -- Fe 1                   0.27        -0.02          2.10473
              O 13 -- Fe 2                   0.27         0.02          2.10514
              O 16 -- Fe 3                   0.27        -0.02          2.10529
              O 14 -- Fe 1                   0.27        -0.02          2.10810
              O 15 -- Fe 4                   0.27         0.02          2.10811
              O 11 -- Fe 2                   0.27         0.02          2.10834
              O 10 -- Fe 3                   0.27        -0.02          2.10845
              Li 4 -- O 5                    0.09        -0.00          2.11222
              Li 1 -- O 6                    0.09         0.00          2.11269
              Li 1 -- O 8                    0.09         0.00          2.11456
              Li 4 -- O 7                    0.09        -0.00          2.11473
              Li 2 -- O 5                    0.09        -0.00          2.11509
              Li 3 -- O 8                    0.09         0.00          2.11555
              Li 3 -- O 6                    0.09         0.00          2.11583
              Li 2 -- O 7                    0.09        -0.00          2.11583
              O 8  -- Fe 4                   0.22         0.02          2.13546
              O 7  -- Fe 3                   0.22        -0.02          2.13580
              O 5  -- Fe 1                   0.22        -0.02          2.13606
              O 6  -- Fe 2                   0.22         0.02          2.13678
              Li 4 -- O 4                    0.17        -0.00          2.19325
              Li 1 -- O 3                    0.17         0.00          2.19353
              Li 2 -- O 2                    0.17        -0.00          2.19353
              Li 4 -- O 2                    0.17        -0.00          2.19448
              Li 3 -- O 1                    0.17         0.00          2.19483
              Li 1 -- O 1                    0.17         0.00          2.19523
              Li 2 -- O 4                    0.17        -0.00          2.19709
              Li 3 -- O 3                    0.17         0.00          2.19742
              Li 2 -- O 10                   0.05        -0.00          2.19745
              Li 4 -- O 16                   0.05        -0.00          2.19819
              Li 3 -- O 15                   0.05         0.00          2.19975
              Li 1 -- O 9                    0.05         0.00          2.20016
              Li 3 -- O 11                   0.05         0.00          2.20025
              Li 4 -- O 12                   0.05        -0.00          2.20045
              Li 2 -- O 14                   0.05        -0.00          2.20053
              Li 1 -- O 13                   0.05         0.00          2.20079
              O 1  -- Fe 1                   0.20        -0.02          2.21854
              O 2  -- Fe 2                   0.20         0.02          2.21943
              O 3  -- Fe 3                   0.20        -0.02          2.22014
              O 4  -- Fe 4                   0.20         0.02          2.22033
              O 13 -- Fe 3                   0.13        -0.02          2.26277
              O 16 -- Fe 2                   0.13         0.02          2.26287
              O 9  -- Fe 1                   0.13        -0.02          2.26298
              O 12 -- Fe 4                   0.13         0.02          2.26413
              O 15 -- Fe 1                   0.13        -0.02          2.26472
              O 11 -- Fe 3                   0.13        -0.02          2.26505
              O 10 -- Fe 2                   0.13         0.02          2.26511
              O 14 -- Fe 4                   0.13         0.02          2.26586
              O 12 -- O 14                  -0.14         0.00          2.47388
              O 10 -- O 16                  -0.14         0.00          2.47403
              O 9  -- O 15                  -0.14        -0.00          2.47406
              O 11 -- O 13                  -0.14        -0.00          2.47416
              O 5  -- O 10                  -0.13        -0.00          2.50023
              O 7  -- O 12                  -0.13        -0.00          2.50025
              O 7  -- O 14                  -0.13        -0.00          2.50035
              O 5  -- O 16                  -0.13        -0.00          2.50058
              O 8  -- O 13                  -0.13         0.00          2.50317
              O 6  -- O 15                  -0.13         0.00          2.50318
              O 8  -- O 11                  -0.13         0.00          2.50322
              O 6  -- O 9                   -0.13         0.00          2.50327
              O 2  -- O 5                   -0.13         0.00          2.58268
              O 4  -- O 7                   -0.13         0.00          2.58305
              O 1  -- O 6                   -0.13        -0.00          2.58550
              O 3  -- O 8                   -0.13        -0.00          2.58559
              O 4  -- O 12                  -0.13         0.00          2.59670
              O 2  -- O 16                  -0.13         0.00          2.59674
              O 4  -- O 14                  -0.13         0.00          2.59678
              O 2  -- O 10                  -0.13         0.00          2.59680
              O 1  -- O 15                  -0.13        -0.00          2.59726
              O 1  -- O 9                   -0.13        -0.00          2.59732
              O 3  -- O 13                  -0.13        -0.00          2.59733
              O 3  -- O 11                  -0.13        -0.00          2.59747
              Li 4 -- P 2                   -0.30         0.00          2.68153
              Li 1 -- P 1                   -0.30        -0.00          2.68263
              Li 2 -- P 2                   -0.30         0.00          2.68280
              Li 1 -- P 3                   -0.30        -0.00          2.68416
              Li 3 -- P 1                   -0.30        -0.00          2.68437
              Li 3 -- P 3                   -0.30        -0.00          2.68452
              Li 4 -- P 4                   -0.30         0.00          2.68456
              Li 2 -- P 4                   -0.30         0.00          2.68548
               P 3 -- Fe 3                  -0.22        -0.00          2.85910
               P 2 -- Fe 2                  -0.22         0.00          2.85943
               P 1 -- Fe 1                  -0.22        -0.00          2.85954
               P 4 -- Fe 4                  -0.22         0.00          2.86073
              O 5  -- O 12                  -0.03        -0.00          2.96602
              O 6  -- O 13                  -0.03         0.00          2.96642
              O 8  -- O 9                   -0.03         0.00          2.96652
              O 7  -- O 16                  -0.03        -0.00          2.96682
              O 5  -- O 14                  -0.03        -0.00          2.96811
              O 7  -- O 10                  -0.03        -0.00          2.96837
              O 6  -- O 11                  -0.03         0.00          2.96855
              O 8  -- O 15                  -0.03         0.00          2.96911
================================================================================


Writing analysis data to ml_dos.castep_bin

Writing model to ml_dos.check
 
 A BibTeX formatted list of references used in this run has been written to 
 ml_dos.bib
 
Initialisation time =     11.10 s
Calculation time    =   4578.66 s
Finalisation time   =      4.22 s
Total time          =   4593.98 s
Peak Memory Use     = 3192168 kB
 
Overall parallel efficiency rating: Good (74%)
 
Data was distributed by:-
k-point (20-way); efficiency rating: Good (74%)
