 +-------------------------------------------------+
 |                                                 |
 |      CCC   AA    SSS  TTTTT  EEEEE  PPPP        |
 |     C     A  A  S       T    E      P   P       |
 |     C     AAAA   SS     T    EEE    PPPP        |
 |     C     A  A     S    T    E      P           |
 |      CCC  A  A  SSS     T    EEEEE  P           |
 |                                                 |
 +-------------------------------------------------+
 |                                                 |
 | Welcome to Academic Release CASTEP version 25.12|
 | Ab Initio Total Energy Program                  |
 |                                                 |
 | Authors:                                        |
 | M. Segall, M. Probert, C. Pickard, P. Hasnip,   |
 | S. Clark, K. Refson, J. R. Yates,               |
 | A. Bartok-Partay, M. Payne                      |
 |                                                 |
 | Contributors:                                   |
 | P. Lindan, P. Haynes, J. White, V. Milman,      |
 | N. Govind, M. Gibson, P. Tulip, V. Cocula,      |
 | B. Montanari, D. Quigley, M. Glover,            |
 | L. Bernasconi, A. Perlov, M. Plummer,           |
 | E. McNellis, J. Meyer, J. Gale, D. Jochym       |
 | J. Aarons, B. Walker, R. Gillen, D. Jones       |
 | T. Green, I. J. Bush, C. J. Armstrong,          |
 | E. J. Higgins, E. L. Brown, M. S. McFly,        |
 | J. Wilkins, B-C. Shih, P. J. P. Byrne,          |
 | R. J. Maurer, J. C. Womack, J. Dziedzic,        |
 | L. LeBlanc, T. K. Stenczel, J. Kermode,         |
 | S. Sturniolo, B. Shi, B. Durham, M. Evans,      |
 | M. J. Smith, A. Tamerus, Z. Hawkhead,           |
 | V. Ravindran, T. Hollins, S. A. Joyce,          |
 | R. T. Strong, A. M. Reilly, S. J. Donaldson,    |
 | J. C. A. Prentice                               |
 |                                                 |
 | Copyright (c) 2000 - 2024                       |
 |                                                 |
 |     Distributed under license from Cambridge    |
 |     Enterprise for academic use only.           |
 |                                                 |
 | Please cite                                     |
 |                                                 |
 |     "First principles methods using CASTEP"     |
 |                                                 |
 |         Zeitschrift fuer Kristallographie       |
 |           220(5-6) pp. 567-570 (2005)           |
 |                                                 |
 | S. J. Clark, M. D. Segall, C. J. Pickard,       |
 | P. J. Hasnip, M. J. Probert, K. Refson,         |
 | M. C. Payne                                     |
 |                                                 |
 |       in all publications arising from          |
 |              your use of CASTEP                 |
 |                                                 |
 +-------------------------------------------------+
 |                                                 |
 |              http://www.castep.org              |
 |                                                 |
 +-------------------------------------------------+



 Compiled for linux_x86_64_gfortran10 on Sun, 13 Jul 2025 14:49:40 -0400
 from code version git version unavailable
 Compiler: GNU Fortran 13.3.0; Optimisation: fast
 Comms   : Open MPI v5.0.3
 MATHLIBS: flexiblas (IMKL) (LAPACK version 3.12.0)
 FFT Lib : fftw3 version fftw-3.3.10-sse2-avx-avx2-avx2_128
 Fundamental constants values: CODATA 2018

 Run started: Fri, 20 Feb 2026 12:06:42 -0500
 Warning in parameters_read: presetting of magnetic moments on atoms cannot be guaranteed when metals_method /= density mixing

 Atomic calculation performed for Li: 1s2 2s1

 Converged in 47 iterations to an ae energy of -202.784 eV

   ============================================================                
   | Pseudopotential Report - Date of generation 20-02-2026   |                
   ------------------------------------------------------------                
   | Element: Li Ionic charge:  3.00 Level of theory: PBE     |                
   | Atomic Solver: Koelling-Harmon                           |                
   |                                                          |                
   |               Reference Electronic Structure             |                
   |         Orbital         Occupation         Energy        |                
   |            1s              2.000           -1.906        |                
   |            2s              1.000           -0.106        |                
   |                                                          |                
   |                 Pseudopotential Definition               |                
   |        Beta     l      e      Rc     scheme   norm       |                
   |          1      0   -1.906   1.001     qc      0         |                
   |          2      0   -0.106   1.001     qc      0         |                
   |          3      0    0.250   1.001     qc      0         |                
   |         loc     1    0.000   1.001     pn      0         |                
   |                                                          |                
   | Augmentation charge Rinner = 0.699                       |                
   | No partial core correction                               |                
   ------------------------------------------------------------                
   | "1|1.0|14|16|18|10U:20(qc=7)"                            |                
   ------------------------------------------------------------                
   |      Author: Chris J. Pickard, Cambridge University      |                
   ============================================================                

 Atomic calculation performed for O: 1s2 2s2 2p4

 Converged in 61 iterations to an ae energy of -2040.902 eV

   ============================================================                
   | Pseudopotential Report - Date of generation 20-02-2026   |                
   ------------------------------------------------------------                
   | Element: O Ionic charge:  6.00 Level of theory: PBE      |                
   | Atomic Solver: Koelling-Harmon                           |                
   |                                                          |                
   |               Reference Electronic Structure             |                
   |         Orbital         Occupation         Energy        |                
   |            2s              2.000           -0.881        |                
   |            2p              4.000           -0.332        |                
   |                                                          |                
   |                 Pseudopotential Definition               |                
   |        Beta     l      e      Rc     scheme   norm       |                
   |          1      0   -0.881   1.100     qc      0         |                
   |          2      0    0.250   1.100     qc      0         |                
   |          3      1   -0.332   1.100     qc      0         |                
   |          4      1    0.250   1.100     qc      0         |                
   |         loc     2    0.000   1.100     pn      0         |                
   |                                                          |                
   | Augmentation charge Rinner = 0.769                       |                
   | Partial core correction Rc = 0.769                       |                
   ------------------------------------------------------------                
   | "2|1.1|17|20|23|20:21(qc=8)"                             |                
   ------------------------------------------------------------                
   |      Author: Chris J. Pickard, Cambridge University      |                
   ============================================================                

 Atomic calculation performed for V: 1s2 2s2 2p6 3s2 3p6 3d3 4s2

 Converged in 81 iterations to an ae energy of -25823.733 eV

   ============================================================                
   | Pseudopotential Report - Date of generation 20-02-2026   |                
   ------------------------------------------------------------                
   | Element: V Ionic charge: 13.00 Level of theory: PBE      |                
   | Atomic Solver: Koelling-Harmon                           |                
   |                                                          |                
   |               Reference Electronic Structure             |                
   |         Orbital         Occupation         Energy        |                
   |            3s              2.000           -2.581        |                
   |            3p              6.000           -1.618        |                
   |            3d              3.000           -0.190        |                
   |            4s              2.000           -0.173        |                
   |                                                          |                
   |                 Pseudopotential Definition               |                
   |        Beta     l      e      Rc     scheme   norm       |                
   |          1      0   -2.581   1.803     qc      0         |                
   |          2      0   -0.173   1.803     qc      0         |                
   |          3      0    0.250   1.803     qc      0         |                
   |          4      1   -1.618   1.803     qc      0         |                
   |          5      1    0.250   1.803     qc      0         |                
   |          6      2   -0.190   1.803     qc      0         |                
   |          7      2    0.250   1.803     qc      0         |                
   |         loc     3    0.000   1.803     pn      0         |                
   |                                                          |                
   | Augmentation charge Rinner = 0.600                       |                
   | Partial core correction Rc = 0.600                       |                
   ------------------------------------------------------------                
   | "3|1.8|1.8|0.6|12|14|16|30U:40:31:32(qc=7)"              |                
   ------------------------------------------------------------                
   |      Author: Chris J. Pickard, Cambridge University      |                
   ============================================================                

 Atomic calculation performed for Fe: 1s2 2s2 2p6 3s2 3p6 3d6 4s2

 Converged in 96 iterations to an ae energy of -34625.102 eV

   ============================================================                
   | Pseudopotential Report - Date of generation 20-02-2026   |                
   ------------------------------------------------------------                
   | Element: Fe Ionic charge:  8.00 Level of theory: PBE     |                
   | Atomic Solver: Koelling-Harmon                           |                
   |                                                          |                
   |               Reference Electronic Structure             |                
   |         Orbital         Occupation         Energy        |                
   |            3d              6.000           -0.276        |                
   |            4s              2.000           -0.194        |                
   |                                                          |                
   |                 Pseudopotential Definition               |                
   |        Beta     l      e      Rc     scheme   norm       |                
   |          1      0   -0.194   2.399     qc      0         |                
   |          2      0    0.250   2.399     qc      0         |                
   |          3      1    0.000   2.399     qc      0         |                
   |          4      1    0.250   2.399     qc      0         |                
   |          5      2   -0.276   1.997     qc      0         |                
   |          6      2    0.250   1.997     qc      0         |                
   |         loc     3    0.000   2.399     pn      0         |                
   |                                                          |                
   | Augmentation charge Rinner = 1.000                       |                
   | Partial core correction Rc = 1.000                       |                
   ------------------------------------------------------------                
   | "3|2.4|2.4|1.0|8|9|10|40:41:32U2U2(qc=5.5)"              |                
   ------------------------------------------------------------                
   |      Author: Chris J. Pickard, Cambridge University      |                
   ============================================================                

 Pseudo atomic calculation performed for Li 1s2 2s1

 Converged in 18 iterations to a total energy of -200.5098 eV

 Pseudo atomic calculation performed for O 2s2 2p4

 Converged in 24 iterations to a total energy of -432.3399 eV

 Pseudo atomic calculation performed for V 3s2 3p6 3d3 4s2

 Converged in 36 iterations to a total energy of -2065.8041 eV

 Pseudo atomic calculation performed for Fe 3d6 4s2

 Converged in 34 iterations to a total energy of -853.8318 eV
 Calculation parallelised over 40 processes.
 Data is distributed by G-vector(40-way)

 ************************************ Title ************************************
 

 ***************************** General Parameters ******************************
  
 output verbosity                               : normal  (1)
 write checkpoint data to                       : ml_dos.check
 type of calculation                            : Electronic Spectroscopy
 stress calculation                             : off
 density difference calculation                 : off
 electron localisation func (ELF) calculation   : off
 Hirshfeld analysis                             : off
 polarisation (Berry phase) analysis            : off
 molecular orbital projected DOS                : off
 deltaSCF calculation                           : off
 unlimited duration calculation
 timing information                             : on
 memory usage estimate                          : on
 write extra output files                       : on
 write final potential to formatted file        : off
 write final density to formatted file          : off
 write BibTeX reference list                    : on
 write OTFG pseudopotential files               : on
 write electrostatic potential file             : on
 write bands file                               : on
 checkpoint writing                             : both castep_bin and check files
  
 output         length unit                     : A
 output           mass unit                     : amu
 output           time unit                     : ps
 output         charge unit                     : e
 output           spin unit                     : hbar/2
 output         energy unit                     : eV
 output          force unit                     : eV/A
 output       velocity unit                     : A/ps
 output       pressure unit                     : GPa
 output     inv_length unit                     : 1/A
 output      frequency unit                     : cm-1
 output force constant unit                     : eV/A**2
 output         volume unit                     : A**3
 output   IR intensity unit                     : (D/A)**2/amu
 output         dipole unit                     : D
 output         efield unit                     : eV/A/e
 output        entropy unit                     : J/mol/K
 output    efield chi2 unit                     : pm/V
  
 wavefunctions paging                           : none
 random number generator seed                   :  120642112
 data distribution                              : optimal for this architecture
 optimization strategy                          : balance speed and memory

 *********************** Exchange-Correlation Parameters ***********************
  
 using functional                               : Perdew Burke Ernzerhof
 relativistic treatment                         : Koelling-Harmon
 DFT+D: Semi-empirical dispersion correction    : off

 ************************* Pseudopotential Parameters **************************
  
 pseudopotential representation                 : reciprocal space
 <beta|phi> representation                      : reciprocal space
 spin-orbit coupling                            : off

 **************************** Basis Set Parameters *****************************
  
 plane wave basis set cut-off                   :   900.0000   eV
 size of standard grid                          :     2.0000
 size of   fine   gmax                          :    30.7390   1/A
 finite basis set correction                    : none

 **************************** Electronic Parameters ****************************
  
 number of  electrons                           :  474.0    
 net charge of system                           :  0.000    
 net spin   of system                           :  30.00    
 number of  up  spins                           :  252.0    
 number of down spins                           :  222.0    
 treating system as spin-polarized
 number of bands                                :        302
 electron temperature                           :     0.0000   K

 ********************* Electronic Minimization Parameters **********************
  
 Method: Treating system as metallic with ensemble DFT treatment of electrons,
         and number of  SD  steps               :          1
         and number of  CG  steps               :          4
  
 total energy / atom convergence tol.           : 0.1000E-05   eV
 max force / atom convergence tol.              : ignored
 convergence tolerance window                   :          3   cycles
 max. number of SCF cycles                      :        100
 number of fixed-spin iterations                :         10
 smearing scheme                                : Gaussian
 smearing width                                 : 0.2000       eV
 Fermi energy convergence tolerance             : 0.2721E-13   eV
 number of occupancy cycles                     :          6
 periodic dipole correction                     : NONE

 *********************** Population Analysis Parameters ************************
  
 Population analysis with cutoff                :  3.000       A
 Population analysis output                     : summary and pdos components
 Partial DOS weights calculated

 ********************* Electronic Spectroscopy Parameters **********************
  
 electronic spectroscopy with theory level      : DFT       
 spectroscopy calculation                       : density of states
 max. number of iterations                      :         60
 max. steps per iteration                       :          5
 number of bands / k-point                      :        389
 band convergence tolerance                     : 0.1000E-05   eV
 write orbitals file                            : off

 *******************************************************************************
  

                           -------------------------------
                                      Unit Cell
                           -------------------------------
        Real Lattice(A)                      Reciprocal Lattice(1/A)
     8.0453290     0.0000000     0.0000000        0.780973072  -0.397734269   0.040128956
     3.6511080     7.1691510     0.0000000        0.000000000   0.876419719   0.040128967
    -1.0785390    -0.6610740    14.4379070        0.000000000   0.000000000   0.435186714

                       Lattice parameters(A)       Cell Angles
                    a =      8.045329          alpha =   94.267714
                    b =      8.045329          beta  =   94.267714
                    c =     14.493220          gamma =   63.011148

                       Current cell volume =           832.752176       A**3
                                   density =             1.993377   AMU/A**3
                                           =             3.310080     g/cm^3

                           -------------------------------
                                     Cell Contents
                           -------------------------------
                         Total number of ions in cell =   66
                      Total number of species in cell =    4
                        Max number of any one species =   42

            xxxxxxxxxxxxxxxxxxxxxxxxxxxxxxxxxxxxxxxxxxxxxxxxxxxxxxxxxxxx
            x  Element    Atom        Fractional coordinates of atoms  x
            x            Number           u          v          w      x
            x----------------------------------------------------------x
            x  Li           1         0.972128   0.311992   0.718275   x 
            x  Li           2         0.311992   0.972128   0.218275   x 
            x  Li           3         0.018124   0.641943   0.035852   x 
            x  Li           4         0.641943   0.018124   0.535852   x 
            x  Li           5         0.338053   0.704048   0.372407   x 
            x  Li           6         0.704048   0.338053   0.872407   x 
            x  O            1         0.155847   0.805483   0.485160   x 
            x  O            2         0.805483   0.155847   0.985160   x 
            x  O            3         0.175235   0.480235   0.148261   x 
            x  O            4         0.480235   0.175235   0.648261   x 
            x  O            5         0.238837   0.234083   0.286476   x 
            x  O            6         0.234083   0.238837   0.786476   x 
            x  O            7         0.901474   0.884418   0.117937   x 
            x  O            8         0.884418   0.901474   0.617937   x 
            x  O            9         0.796657   0.072044   0.293129   x 
            x  O           10         0.072044   0.796657   0.793129   x 
            x  O           11         0.151031   0.461424   0.447332   x 
            x  O           12         0.461424   0.151031   0.947332   x 
            x  O           13         0.616924   0.440750   0.623183   x 
            x  O           14         0.440750   0.616924   0.123183   x 
            x  O           15         0.828881   0.418712   0.305532   x 
            x  O           16         0.418712   0.828881   0.805532   x 
            x  O           17         0.619537   0.555571   0.442140   x 
            x  O           18         0.555571   0.619537   0.942140   x 
            x  O           19         0.534515   0.810238   0.307404   x 
            x  O           20         0.810238   0.534515   0.807404   x 
            x  O           21         0.530161   0.814545   0.606448   x 
            x  O           22         0.814545   0.530161   0.106448   x 
            x  O           23         0.277546   0.070150   0.457478   x 
            x  O           24         0.070150   0.277546   0.957478   x 
            x  O           25         0.913734   0.674977   0.278026   x 
            x  O           26         0.674977   0.913734   0.778026   x 
            x  O           27         0.167801   0.835664   0.265917   x 
            x  O           28         0.835664   0.167801   0.765917   x 
            x  O           29         0.456204   0.450030   0.296062   x 
            x  O           30         0.450030   0.456204   0.796062   x 
            x  O           31         0.892391   0.186470   0.476778   x 
            x  O           32         0.186470   0.892391   0.976778   x 
            x  O           33         0.555690   0.233956   0.132417   x 
            x  O           34         0.233956   0.555690   0.632417   x 
            x  O           35         0.789377   0.767405   0.458073   x 
            x  O           36         0.767405   0.789377   0.958073   x 
            x  O           37         0.154482   0.073614   0.635164   x 
            x  O           38         0.073614   0.154482   0.135164   x 
            x  O           39         0.532832   0.208190   0.432214   x 
            x  O           40         0.208190   0.532832   0.932214   x 
            x  O           41         0.899556   0.529630   0.597702   x 
            x  O           42         0.529630   0.899556   0.097702   x 
            x  V            1         0.403189   0.442023   0.178116   x 
            x  V            2         0.442023   0.403189   0.678116   x 
            x  V            3         0.739333   0.664982   0.354040   x 
            x  V            4         0.664982   0.739333   0.854040   x 
            x  V            5         0.109994   0.034131   0.517708   x 
            x  V            6         0.034131   0.109994   0.017708   x 
            x  V            7         0.670809   0.594108   0.564577   x 
            x  V            8         0.594108   0.670809   0.064577   x 
            x  V            9         0.303241   0.250228   0.402802   x 
            x  V           10         0.250228   0.303241   0.902802   x 
            x  V           11         0.947539   0.870501   0.238158   x 
            x  V           12         0.870501   0.947539   0.738158   x 
            x  Fe           1         0.698497   0.296612   0.372895   x 
            x  Fe           2         0.296612   0.698497   0.872895   x 
            x  Fe           3         0.027674   0.670005   0.539965   x 
            x  Fe           4         0.670005   0.027674   0.039965   x 
            x  Fe           5         0.397482   0.007860   0.709170   x 
            x  Fe           6         0.007860   0.397482   0.209170   x 
            xxxxxxxxxxxxxxxxxxxxxxxxxxxxxxxxxxxxxxxxxxxxxxxxxxxxxxxxxxxx


                         No user defined ionic velocities

                           -------------------------------
                                   Details of Species
                           -------------------------------

                               Mass of species in AMU
                                    Li    6.9410000
                                    O   15.9994000
                                    V   50.9415000
                                    Fe   55.8450000

                          Electric Quadrupole Moment (Barn)
                                    Li   -0.0401000 Isotope   7
                                    O   -0.0255800 Isotope  17
                                    V   -0.0520000 Isotope  51
                                    Fe    0.1600000 Isotope  57
         xxxxxxxxxxxxxxxxxxxxxxxxxxxxxxxxxxxxxxxxxxxxxxxxxxxxxxxxxxxxxxxxxxxxxx
         |  Element    Atom         Initial            Initial magnetic       |
         |            Number    spin polarization        moment (uB)     Fix? |
         |--------------------------------------------------------------------|
         | Li             1         0.000000              0.000       F       |
         | Li             2         0.000000              0.000       F       |
         | Li             3         0.000000              0.000       F       |
         | Li             4         0.000000              0.000       F       |
         | Li             5         0.000000              0.000       F       |
         | Li             6         0.000000              0.000       F       |
         | O              1         0.000000              0.000       F       |
         | O              2         0.000000              0.000       F       |
         | O              3         0.000000              0.000       F       |
         | O              4         0.000000              0.000       F       |
         | O              5         0.000000              0.000       F       |
         | O              6         0.000000              0.000       F       |
         | O              7         0.000000              0.000       F       |
         | O              8         0.000000              0.000       F       |
         | O              9         0.000000              0.000       F       |
         | O             10         0.000000              0.000       F       |
         | O             11         0.000000              0.000       F       |
         | O             12         0.000000              0.000       F       |
         | O             13         0.000000              0.000       F       |
         | O             14         0.000000              0.000       F       |
         | O             15         0.000000              0.000       F       |
         | O             16         0.000000              0.000       F       |
         | O             17         0.000000              0.000       F       |
         | O             18         0.000000              0.000       F       |
         | O             19         0.000000              0.000       F       |
         | O             20         0.000000              0.000       F       |
         | O             21         0.000000              0.000       F       |
         | O             22         0.000000              0.000       F       |
         | O             23         0.000000              0.000       F       |
         | O             24         0.000000              0.000       F       |
         | O             25         0.000000              0.000       F       |
         | O             26         0.000000              0.000       F       |
         | O             27         0.000000              0.000       F       |
         | O             28         0.000000              0.000       F       |
         | O             29         0.000000              0.000       F       |
         | O             30         0.000000              0.000       F       |
         | O             31         0.000000              0.000       F       |
         | O             32         0.000000              0.000       F       |
         | O             33         0.000000              0.000       F       |
         | O             34         0.000000              0.000       F       |
         | O             35         0.000000              0.000       F       |
         | O             36         0.000000              0.000       F       |
         | O             37         0.000000              0.000       F       |
         | O             38         0.000000              0.000       F       |
         | O             39         0.000000              0.000       F       |
         | O             40         0.000000              0.000       F       |
         | O             41         0.000000              0.000       F       |
         | O             42         0.000000              0.000       F       |
         | V              1         0.000000              0.000       F       |
         | V              2         0.000000              0.000       F       |
         | V              3         0.000000              0.000       F       |
         | V              4         0.000000              0.000       F       |
         | V              5         0.000000              0.000       F       |
         | V              6         0.000000              0.000       F       |
         | V              7         0.000000              0.000       F       |
         | V              8         0.000000              0.000       F       |
         | V              9         0.000000              0.000       F       |
         | V             10         0.000000              0.000       F       |
         | V             11         0.000000              0.000       F       |
         | V             12         0.000000              0.000       F       |
         | Fe             1         0.625000              5.000       F       |
         | Fe             2         0.625000              5.000       F       |
         | Fe             3         0.625000              5.000       F       |
         | Fe             4         0.625000              5.000       F       |
         | Fe             5         0.625000              5.000       F       |
         | Fe             6         0.625000              5.000       F       |
         xxxxxxxxxxxxxxxxxxxxxxxxxxxxxxxxxxxxxxxxxxxxxxxxxxxxxxxxxxxxxxxxxxxxxx



         Quantisation axis:    0.00000   0.00000   1.00000

         Units for Hubbard U values are eV
         xxxxxxxxxxxxxxxxxxxxxxxxxxxxxxxxxxxxxxxxxxxxxxxxxxxxxxxxxxxxxxxxxxxx
         |  Element     Atom     Hubbard U   values by orbital type         |
         |             Number      s          p          d          f       |
         |------------------------------------------------------------------|
         |Li            1         0.00000    0.00000    0.00000    0.00000  |
         |Li            2         0.00000    0.00000    0.00000    0.00000  |
         |Li            3         0.00000    0.00000    0.00000    0.00000  |
         |Li            4         0.00000    0.00000    0.00000    0.00000  |
         |Li            5         0.00000    0.00000    0.00000    0.00000  |
         |Li            6         0.00000    0.00000    0.00000    0.00000  |
         |O             1         0.00000    0.00000    0.00000    0.00000  |
         |O             2         0.00000    0.00000    0.00000    0.00000  |
         |O             3         0.00000    0.00000    0.00000    0.00000  |
         |O             4         0.00000    0.00000    0.00000    0.00000  |
         |O             5         0.00000    0.00000    0.00000    0.00000  |
         |O             6         0.00000    0.00000    0.00000    0.00000  |
         |O             7         0.00000    0.00000    0.00000    0.00000  |
         |O             8         0.00000    0.00000    0.00000    0.00000  |
         |O             9         0.00000    0.00000    0.00000    0.00000  |
         |O            10         0.00000    0.00000    0.00000    0.00000  |
         |O            11         0.00000    0.00000    0.00000    0.00000  |
         |O            12         0.00000    0.00000    0.00000    0.00000  |
         |O            13         0.00000    0.00000    0.00000    0.00000  |
         |O            14         0.00000    0.00000    0.00000    0.00000  |
         |O            15         0.00000    0.00000    0.00000    0.00000  |
         |O            16         0.00000    0.00000    0.00000    0.00000  |
         |O            17         0.00000    0.00000    0.00000    0.00000  |
         |O            18         0.00000    0.00000    0.00000    0.00000  |
         |O            19         0.00000    0.00000    0.00000    0.00000  |
         |O            20         0.00000    0.00000    0.00000    0.00000  |
         |O            21         0.00000    0.00000    0.00000    0.00000  |
         |O            22         0.00000    0.00000    0.00000    0.00000  |
         |O            23         0.00000    0.00000    0.00000    0.00000  |
         |O            24         0.00000    0.00000    0.00000    0.00000  |
         |O            25         0.00000    0.00000    0.00000    0.00000  |
         |O            26         0.00000    0.00000    0.00000    0.00000  |
         |O            27         0.00000    0.00000    0.00000    0.00000  |
         |O            28         0.00000    0.00000    0.00000    0.00000  |
         |O            29         0.00000    0.00000    0.00000    0.00000  |
         |O            30         0.00000    0.00000    0.00000    0.00000  |
         |O            31         0.00000    0.00000    0.00000    0.00000  |
         |O            32         0.00000    0.00000    0.00000    0.00000  |
         |O            33         0.00000    0.00000    0.00000    0.00000  |
         |O            34         0.00000    0.00000    0.00000    0.00000  |
         |O            35         0.00000    0.00000    0.00000    0.00000  |
         |O            36         0.00000    0.00000    0.00000    0.00000  |
         |O            37         0.00000    0.00000    0.00000    0.00000  |
         |O            38         0.00000    0.00000    0.00000    0.00000  |
         |O            39         0.00000    0.00000    0.00000    0.00000  |
         |O            40         0.00000    0.00000    0.00000    0.00000  |
         |O            41         0.00000    0.00000    0.00000    0.00000  |
         |O            42         0.00000    0.00000    0.00000    0.00000  |
         |V             1         0.00000    0.00000    3.25000    0.00000  |
         |V             2         0.00000    0.00000    3.25000    0.00000  |
         |V             3         0.00000    0.00000    3.25000    0.00000  |
         |V             4         0.00000    0.00000    3.25000    0.00000  |
         |V             5         0.00000    0.00000    3.25000    0.00000  |
         |V             6         0.00000    0.00000    3.25000    0.00000  |
         |V             7         0.00000    0.00000    3.25000    0.00000  |
         |V             8         0.00000    0.00000    3.25000    0.00000  |
         |V             9         0.00000    0.00000    3.25000    0.00000  |
         |V            10         0.00000    0.00000    3.25000    0.00000  |
         |V            11         0.00000    0.00000    3.25000    0.00000  |
         |V            12         0.00000    0.00000    3.25000    0.00000  |
         |Fe            1         0.00000    0.00000    5.30000    0.00000  |
         |Fe            2         0.00000    0.00000    5.30000    0.00000  |
         |Fe            3         0.00000    0.00000    5.30000    0.00000  |
         |Fe            4         0.00000    0.00000    5.30000    0.00000  |
         |Fe            5         0.00000    0.00000    5.30000    0.00000  |
         |Fe            6         0.00000    0.00000    5.30000    0.00000  |
         xxxxxxxxxxxxxxxxxxxxxxxxxxxxxxxxxxxxxxxxxxxxxxxxxxxxxxxxxxxxxxxxxxxx


                          Files used for pseudopotentials:
                                    Li 1|1.0|14|16|18|10U:20(qc=7)
                                    O 2|1.1|17|20|23|20:21(qc=8)
                                    V 3|1.8|1.8|0.6|12|14|16|30U:40:31:32(qc=7)
                                    Fe 3|2.4|2.4|1.0|8|9|10|40:41:32U2U2(qc=5.5)

                           -------------------------------
                              k-Points For BZ Sampling
                           -------------------------------
                       MP grid size for SCF calculation is  3  3  2
                            with an offset of   0.000  0.000  0.000
                       Number of kpoints used =             9

                           -------------------------------
                               Symmetry and Constraints
                           -------------------------------

                      Maximum deviation from symmetry =  0.00000         ANG

                      Number of symmetry operations   =           1
                      Number of ionic constraints     =           3
                      Point group of crystal =     1: C1, 1, 1
                      Space group of crystal =     9: Cc, C -2yc

             Set iprint > 1 for details on symmetry rotations/translations

                         Centre of mass is constrained
             Set iprint > 2 for details of linear ionic constraints

                         Number of cell constraints= 0
                         Cell constraints are:  1 2 3 4 5 6

                         External pressure/stress (GPa)
                          0.00000   0.00000   0.00000
                                    0.00000   0.00000
                                              0.00000
 
+---------------- MEMORY AND SCRATCH DISK ESTIMATES PER PROCESS --------------+
|                                                     Memory          Disk    |
| Baseline code, static data and system overhead      796.0 MB         0.0 MB |
| BLAS internal memory storage                          0.0 MB         0.0 MB |
| Model and support data                              557.3 MB         0.0 MB |
| Electronic energy minimisation requirements         679.9 MB         0.0 MB |
| Force calculation requirements                        6.4 MB         0.0 MB |
|                                               ----------------------------- |
| Approx. total storage required per process         2033.2 MB         0.0 MB |
|                                                                             |
| Requirements will fluctuate during execution and may exceed these estimates |
+-----------------------------------------------------------------------------+
Calculating approximate eigenstates for fixed initial Hamiltonian
Cut-off for approx. calculation is  375.902 eV
Resetting cut-off to  900.000 eV
Improving states further at cut-off of  900.000 eV
Calculating total energy with cut-off of  900.000 eV.

 Pseudo atomic calculation performed for Li 1s2 2s1

 Converged in 18 iterations to a total energy of -200.5098 eV

 Pseudo atomic calculation performed for O 2s2 2p4

 Converged in 24 iterations to a total energy of -432.3399 eV

 Pseudo atomic calculation performed for V 3s2 3p6 3d3 4s2

 Converged in 36 iterations to a total energy of -2065.8041 eV

 Pseudo atomic calculation performed for Fe 3d6 4s2

 Converged in 34 iterations to a total energy of -853.8318 eV
------------------------------------------------------------------------ <-- SCF
SCF loop      Energy           Fermi           Energy gain       Timer   <-- SCF
                               energy          per atom          (sec)   <-- SCF
------------------------------------------------------------------------ <-- SCF
Initial  -4.68233986E+004  6.66173346E+000                       154.79  <-- SCF
      1  -4.96427716E+004  4.13174356E+000   4.27177740E+001     609.83  <-- SCF
      2  -4.97761011E+004  2.86283449E+000   2.02014281E+000     977.65  <-- SCF
      3  -4.97819828E+004  2.51240554E+000   8.91173860E-002    1314.99  <-- SCF
      4  -4.97822588E+004  2.51240554E+000   4.18145816E-003    1629.85  <-- SCF
      5  -4.97822588E+004  2.51240554E+000   0.00000000E+000    1968.84  <-- SCF
      6  -4.97822588E+004  2.51240554E+000   0.00000000E+000    2311.86  <-- SCF
      7  -4.97294491E+004  2.50030610E+000  -8.00147561E-001    2745.21  <-- SCF
      8  -4.97307758E+004  2.48455603E+000   2.01029116E-002    3046.92  <-- SCF
      9  -4.97308845E+004  2.49418183E+000   1.64610385E-003    3329.45  <-- SCF
     10  -4.97308948E+004  2.49322422E+000   1.56628303E-004    3598.05  <-- SCF
     11  -4.97308960E+004  2.49399124E+000   1.78433941E-005    3903.90  <-- SCF
     12  -4.97308962E+004  2.49391360E+000   2.54696399E-006    4182.29  <-- SCF
     13  -4.97308962E+004  2.49401330E+000   3.64768474E-007    4446.41  <-- SCF
     14  -4.97308962E+004  2.49400874E+000   6.01421260E-008    4733.77  <-- SCF
------------------------------------------------------------------------ <-- SCF
 
Integrated Spin Density     =     30.0000     hbar/2
Integrated |Spin Density|   =     30.0892     hbar/2
 

     Hubbard U occupation numbers
     ----------------------------
Species   Ion   l  spin               occupancies
==================================================================
  V        1    2   up:   0.43  0.44  0.47  0.51  0.53
                    dn:   0.39  0.42  0.45  0.49  0.50
  V        2    2   up:   0.43  0.44  0.47  0.51  0.53
                    dn:   0.39  0.42  0.45  0.49  0.50
  V        3    2   up:   0.33  0.42  0.51  0.52  0.54
                    dn:   0.30  0.41  0.50  0.51  0.52
  V        4    2   up:   0.33  0.42  0.51  0.52  0.54
                    dn:   0.30  0.41  0.50  0.51  0.52
  V        5    2   up:   0.42  0.44  0.48  0.52  0.52
                    dn:   0.36  0.41  0.46  0.49  0.51
  V        6    2   up:   0.42  0.44  0.48  0.52  0.52
                    dn:   0.36  0.41  0.46  0.49  0.51
  V        7    2   up:   0.41  0.43  0.48  0.51  0.52
                    dn:   0.38  0.39  0.47  0.49  0.51
  V        8    2   up:   0.41  0.43  0.48  0.51  0.52
                    dn:   0.38  0.39  0.47  0.49  0.51
  V        9    2   up:   0.42  0.43  0.48  0.51  0.53
                    dn:   0.38  0.42  0.45  0.49  0.50
  V       10    2   up:   0.42  0.43  0.48  0.51  0.53
                    dn:   0.38  0.42  0.45  0.49  0.50
  V       11    2   up:   0.42  0.43  0.47  0.52  0.52
                    dn:   0.40  0.41  0.45  0.49  0.51
  V       12    2   up:   0.42  0.43  0.47  0.52  0.52
                    dn:   0.40  0.41  0.45  0.49  0.51
  Fe       1    2   up:   0.99  0.99  1.00  1.00  1.00
                    dn:   0.10  0.10  0.12  0.38  0.39
  Fe       2    2   up:   0.99  0.99  1.00  1.00  1.00
                    dn:   0.10  0.10  0.12  0.38  0.39
  Fe       3    2   up:   0.99  0.99  1.00  1.00  1.00
                    dn:   0.10  0.11  0.11  0.38  0.41
  Fe       4    2   up:   0.99  0.99  1.00  1.00  1.00
                    dn:   0.10  0.11  0.11  0.38  0.41
  Fe       5    2   up:   0.99  0.99  1.00  1.00  1.00
                    dn:   0.09  0.11  0.13  0.36  0.40
  Fe       6    2   up:   0.99  0.99  1.00  1.00  1.00
                    dn:   0.09  0.11  0.13  0.36  0.40
==================================================================

Final energy, E             =  -49730.89620176     eV
Final free energy (E-TS)    =  -49730.89620176     eV
(energies not corrected for finite basis set)
 
NB est. 0K energy (E-0.5TS)      =  -49730.89620176     eV
 

Writing analysis data to ml_dos.castep_bin

Writing model to ml_dos.check
 
+---------------- MEMORY AND SCRATCH DISK ESTIMATES PER PROCESS --------------+
|                                                     Memory          Disk    |
|                                               ----------------------------- |
| Approx. total storage required per process         1608.1 MB         0.0 MB |
|                                                                             |
| Requirements will fluctuate during execution and may exceed these estimates |
+-----------------------------------------------------------------------------+
 
  =====================================================================
  +                                                                   +
  +                 Calculation of Spectral Properties                +
  +                                                                   +
  + Calculation re-parallelised over 36 processes.                    +
  + There are 9 k-points distributed across 9 k-point groups.         +
  + Data distributed by G-vector(4-way), k-point(9-way), band(1-way)  +
  + Data distributed by G-vector(4-way), k-point(9-way)               +
  +                                                                   +
  =====================================================================

 Pseudo atomic calculation performed for Li 1s2 2s1

 Converged in 18 iterations to a total energy of -200.5098 eV

 Pseudo atomic calculation performed for O 2s2 2p4

 Converged in 24 iterations to a total energy of -432.3399 eV

 Pseudo atomic calculation performed for V 3s2 3p6 3d3 4s2

 Converged in 36 iterations to a total energy of -2065.8041 eV

 Pseudo atomic calculation performed for Fe 3d6 4s2

 Converged in 34 iterations to a total energy of -853.8318 eV

 Pseudo atomic calculation performed for Li 1s2 2s1

 Converged in 18 iterations to a total energy of -200.5098 eV

 Pseudo atomic calculation performed for O 2s2 2p4

 Converged in 24 iterations to a total energy of -432.3399 eV

 Pseudo atomic calculation performed for V 3s2 3p6 3d3 4s2

 Converged in 36 iterations to a total energy of -2065.8041 eV

 Pseudo atomic calculation performed for Fe 3d6 4s2

 Converged in 34 iterations to a total energy of -853.8318 eV
  Starting k-point:        1 of        1 Time:      0.00 sec  |<-- SPEC

 Pseudo atomic calculation performed for Li 1s2 2s1

 Converged in 18 iterations to a total energy of -200.5098 eV

 Pseudo atomic calculation performed for O 2s2 2p4

 Converged in 24 iterations to a total energy of -432.3399 eV

 Pseudo atomic calculation performed for V 3s2 3p6 3d3 4s2

 Converged in 36 iterations to a total energy of -2065.8041 eV

 Pseudo atomic calculation performed for Fe 3d6 4s2

 Converged in 34 iterations to a total energy of -853.8318 eV
  Starting k-point:        1 of        1 Time:    341.36 sec  |<-- SPEC

 Pseudo atomic calculation performed for Li 1s2 2s1

 Converged in 18 iterations to a total energy of -200.5098 eV

 Pseudo atomic calculation performed for O 2s2 2p4

 Converged in 24 iterations to a total energy of -432.3399 eV

 Pseudo atomic calculation performed for V 3s2 3p6 3d3 4s2

 Converged in 36 iterations to a total energy of -2065.8041 eV

 Pseudo atomic calculation performed for Fe 3d6 4s2

 Converged in 34 iterations to a total energy of -853.8318 eV
  Check-pointing spectral run                                 |<-- SPEC
  Total time to compute matrix elements            661.26 sec |<-- SPEC
  
  + Calculation re-parallelised over 40 processes.                    +
  + Data distributed by G-vector(40-way)                              +

 Pseudo atomic calculation performed for Li 1s2 2s1

 Converged in 18 iterations to a total energy of -200.5098 eV

 Pseudo atomic calculation performed for O 2s2 2p4

 Converged in 24 iterations to a total energy of -432.3399 eV

 Pseudo atomic calculation performed for V 3s2 3p6 3d3 4s2

 Converged in 36 iterations to a total energy of -2065.8041 eV

 Pseudo atomic calculation performed for Fe 3d6 4s2

 Converged in 34 iterations to a total energy of -853.8318 eV

 ************************** Forces **************************
 *                                                          *
 *               Cartesian components (eV/A)                *
 * -------------------------------------------------------- *
 *                         x            y            z      *
 *                                                          *
 * Li              1     -0.01926     -0.05152     -0.00675 *
 * Li              2     -0.05466      0.00623     -0.00671 *
 * Li              3     -0.01661      0.03346     -0.00190 *
 * Li              4      0.02229     -0.02997     -0.00188 *
 * Li              5      0.00742     -0.03178     -0.03095 *
 * Li              6     -0.02496      0.02103     -0.03098 *
 * O               1      0.25278      0.59741      0.12053 *
 * O               2      0.64706     -0.04589      0.12053 *
 * O               3      0.59812     -0.06469      0.05746 *
 * O               4      0.21366      0.56203      0.05736 *
 * O               5      0.24222     -0.11454      0.64967 *
 * O               6      0.00784      0.26779      0.64961 *
 * O               7      0.20080     -0.19331      0.59690 *
 * O               8     -0.08118      0.26663      0.59679 *
 * O               9      0.19942     -0.89712     -0.51883 *
 * O              10     -0.70876      0.58472     -0.51875 *
 * O              11      0.25310     -0.91351     -0.45038 *
 * O              12     -0.69910      0.64007     -0.45034 *
 * O              13     -0.05993      0.18467     -0.06086 *
 * O              14      0.13747     -0.13734     -0.06088 *
 * O              15      0.13574      0.43006      0.13739 *
 * O              16      0.44476     -0.07421      0.13733 *
 * O              17      0.12994      0.22518      0.39431 *
 * O              18      0.25963      0.01358      0.39462 *
 * O              19      0.61373     -0.67402      0.44099 *
 * O              20     -0.32207      0.85273      0.44095 *
 * O              21      0.18562     -0.69501     -0.43662 *
 * O              22     -0.53538      0.48103     -0.43676 *
 * O              23     -0.19263      0.18793      0.05791 *
 * O              24      0.07997     -0.25700      0.05792 *
 * O              25      0.04628      0.19424      0.03573 *
 * O              26      0.19391     -0.04689      0.03567 *
 * O              27     -0.70489      0.10538     -0.17027 *
 * O              28     -0.22594     -0.67587     -0.17026 *
 * O              29     -0.24044      0.11522     -0.73186 *
 * O              30     -0.00644     -0.26645     -0.73159 *
 * O              31      0.62859     -0.59958      0.46675 *
 * O              32     -0.24900      0.83227      0.46679 *
 * O              33     -0.30854      0.93383      0.51159 *
 * O              34      0.69194     -0.69856      0.51148 *
 * O              35     -0.23142     -0.03710     -0.53874 *
 * O              36     -0.13808     -0.18932     -0.53862 *
 * O              37     -0.26078      0.01133     -0.60735 *
 * O              38     -0.10826     -0.23757     -0.60736 *
 * O              39     -0.73593      0.06078     -0.07164 *
 * O              40     -0.27980     -0.68334     -0.07164 *
 * O              41     -0.69828      0.11973     -0.18364 *
 * O              42     -0.21031     -0.67685     -0.18371 *
 * V               1      0.14909     -0.50646      0.16416 *
 * V               2     -0.38364      0.36262      0.16410 *
 * V               3     -0.37444      0.79899      0.12117 *
 * V               4      0.54206     -0.69624      0.12114 *
 * V               5     -0.23582      0.12467     -0.08005 *
 * V               6      0.00404     -0.26672     -0.08010 *
 * V               7      0.05513      0.15230      0.14114 *
 * V               8      0.16076     -0.01994      0.14120 *
 * V               9      0.14704      0.32327      0.04768 *
 * V              10      0.35478     -0.01573      0.04765 *
 * V              11      0.27167      0.47069     -0.04015 *
 * V              12      0.54261      0.02848     -0.04028 *
 * Fe              1     -0.05688     -0.06342     -0.02497 *
 * Fe              2     -0.08236     -0.02190     -0.02506 *
 * Fe              3     -0.12675      0.03857      0.05636 *
 * Fe              4     -0.02316     -0.13048      0.05630 *
 * Fe              5     -0.04047      0.03939     -0.04467 *
 * Fe              6      0.01672     -0.05397     -0.04465 *
 *                                                          *
 ************************************************************

 Pseudo atomic calculation performed for Li 1s2 2s1

 Converged in 18 iterations to a total energy of -200.5098 eV

 Pseudo atomic calculation performed for O 2s2 2p4

 Converged in 24 iterations to a total energy of -432.3399 eV

 Pseudo atomic calculation performed for V 3s2 3p6 3d3 4s2

 Converged in 36 iterations to a total energy of -2065.8041 eV

 Pseudo atomic calculation performed for Fe 3d6 4s2

 Converged in 34 iterations to a total energy of -853.8318 eV
Charge spilling parameter for spin component 1 = 0.18%
Charge spilling parameter for spin component 2 = 0.15%

                   Orbital Populations                  
  ---------------------------------------------------------------
     Ion    Atom   Orbital              Up        Down      Spin
  ---------------------------------------------------------------
     Li     1      S                    1.000     1.000     0.000
     Li     1      S                    0.017     0.019    -0.003
     Li     1      Px                   0.032     0.035    -0.002
     Li     1      Py                   0.035     0.037    -0.003
     Li     1      Pz                   0.029     0.030    -0.001
     Li     2      S                    1.000     1.000     0.000
     Li     2      S                    0.017     0.019    -0.003
     Li     2      Px                   0.033     0.035    -0.002
     Li     2      Py                   0.034     0.037    -0.003
     Li     2      Pz                   0.029     0.030    -0.001
     Li     3      S                    1.000     1.000     0.000
     Li     3      S                    0.005     0.010    -0.005
     Li     3      Px                   0.026     0.029    -0.003
     Li     3      Py                   0.027     0.032    -0.005
     Li     3      Pz                   0.035     0.039    -0.004
     Li     4      S                    1.000     1.000     0.000
     Li     4      S                    0.005     0.010    -0.005
     Li     4      Px                   0.016     0.020    -0.004
     Li     4      Py                   0.036     0.040    -0.004
     Li     4      Pz                   0.035     0.039    -0.004
     Li     5      S                    1.000     1.000     0.000
     Li     5      S                    0.006     0.010    -0.003
     Li     5      Px                   0.022     0.025    -0.002
     Li     5      Py                   0.031     0.034    -0.003
     Li     5      Pz                   0.043     0.044    -0.002
     Li     6      S                    1.000     1.000     0.000
     Li     6      S                    0.006     0.010    -0.003
     Li     6      Px                   0.021     0.023    -0.002
     Li     6      Py                   0.032     0.035    -0.003
     Li     6      Pz                   0.043     0.044    -0.002
      O     1      S                    0.943     0.935     0.008
      O     1      Px                   0.826     0.787     0.038
      O     1      Py                   0.773     0.756     0.017
      O     1      Pz                   0.833     0.812     0.021
      O     2      S                    0.943     0.935     0.008
      O     2      Px                   0.766     0.735     0.032
      O     2      Py                   0.833     0.809     0.024
      O     2      Pz                   0.833     0.812     0.021
      O     3      S                    0.941     0.932     0.008
      O     3      Px                   0.770     0.732     0.037
      O     3      Py                   0.835     0.813     0.022
      O     3      Pz                   0.839     0.814     0.025
      O     4      S                    0.941     0.932     0.008
      O     4      Px                   0.829     0.791     0.038
      O     4      Py                   0.776     0.754     0.022
      O     4      Pz                   0.839     0.814     0.025
      O     5      S                    0.943     0.934     0.009
      O     5      Px                   0.829     0.799     0.030
      O     5      Py                   0.836     0.801     0.035
      O     5      Pz                   0.775     0.755     0.020
      O     6      S                    0.943     0.934     0.009
      O     6      Px                   0.831     0.815     0.016
      O     6      Py                   0.834     0.786     0.049
      O     6      Pz                   0.775     0.755     0.020
      O     7      S                    0.940     0.931     0.010
      O     7      Px                   0.845     0.803     0.041
      O     7      Py                   0.841     0.801     0.040
      O     7      Pz                   0.774     0.756     0.018
      O     8      S                    0.940     0.931     0.010
      O     8      Px                   0.840     0.817     0.023
      O     8      Py                   0.846     0.788     0.058
      O     8      Pz                   0.774     0.756     0.018
      O     9      S                    0.941     0.928     0.013
      O     9      Px                   0.827     0.808     0.019
      O     9      Py                   0.782     0.747     0.035
      O     9      Pz                   0.811     0.776     0.035
      O    10      S                    0.941     0.928     0.013
      O    10      Px                   0.803     0.769     0.034
      O    10      Py                   0.806     0.786     0.020
      O    10      Pz                   0.811     0.776     0.035
      O    11      S                    0.940     0.928     0.011
      O    11      Px                   0.820     0.808     0.012
      O    11      Py                   0.772     0.751     0.021
      O    11      Pz                   0.807     0.783     0.024
      O    12      S                    0.940     0.928     0.011
      O    12      Px                   0.794     0.776     0.018
      O    12      Py                   0.798     0.783     0.015
      O    12      Pz                   0.807     0.783     0.024
      O    13      S                    0.927     0.928    -0.001
      O    13      Px                   0.772     0.773    -0.001
      O    13      Py                   0.806     0.804     0.002
      O    13      Pz                   0.805     0.804     0.001
      O    14      S                    0.927     0.928    -0.001
      O    14      Px                   0.773     0.774    -0.001
      O    14      Py                   0.806     0.803     0.003
      O    14      Pz                   0.805     0.804     0.001
      O    15      S                    0.944     0.926     0.017
      O    15      Px                   0.868     0.779     0.089
      O    15      Py                   0.805     0.762     0.043
      O    15      Pz                   0.860     0.787     0.073
      O    16      S                    0.944     0.926     0.017
      O    16      Px                   0.808     0.748     0.060
      O    16      Py                   0.866     0.793     0.072
      O    16      Pz                   0.860     0.787     0.073
      O    17      S                    0.939     0.931     0.008
      O    17      Px                   0.834     0.826     0.008
      O    17      Py                   0.847     0.802     0.045
      O    17      Pz                   0.773     0.762     0.011
      O    18      S                    0.939     0.931     0.008
      O    18      Px                   0.826     0.790     0.036
      O    18      Py                   0.856     0.839     0.017
      O    18      Pz                   0.773     0.762     0.011
      O    19      S                    0.944     0.944    -0.000
      O    19      Px                   0.759     0.760    -0.001
      O    19      Py                   0.774     0.772     0.003
      O    19      Pz                   0.783     0.782     0.001
      O    20      S                    0.944     0.944    -0.000
      O    20      Px                   0.785     0.784     0.001
      O    20      Py                   0.749     0.748     0.001
      O    20      Pz                   0.783     0.782     0.001
      O    21      S                    0.939     0.930     0.010
      O    21      Px                   0.825     0.814     0.011
      O    21      Py                   0.767     0.752     0.015
      O    21      Pz                   0.806     0.782     0.024
      O    22      S                    0.939     0.930     0.010
      O    22      Px                   0.792     0.779     0.013
      O    22      Py                   0.801     0.788     0.013
      O    22      Pz                   0.806     0.782     0.024
      O    23      S                    0.927     0.928    -0.001
      O    23      Px                   0.778     0.778    -0.000
      O    23      Py                   0.802     0.801     0.001
      O    23      Pz                   0.810     0.807     0.003
      O    24      S                    0.927     0.928    -0.001
      O    24      Px                   0.773     0.774    -0.001
      O    24      Py                   0.807     0.805     0.001
      O    24      Pz                   0.810     0.807     0.003
      O    25      S                    0.932     0.925     0.007
      O    25      Px                   0.800     0.795     0.005
      O    25      Py                   0.818     0.778     0.040
      O    25      Pz                   0.830     0.811     0.019
      O    26      S                    0.932     0.925     0.007
      O    26      Px                   0.789     0.755     0.034
      O    26      Py                   0.829     0.818     0.011
      O    26      Pz                   0.830     0.811     0.019
      O    27      S                    0.941     0.941     0.000
      O    27      Px                   0.755     0.754     0.001
      O    27      Py                   0.806     0.797     0.009
      O    27      Pz                   0.813     0.808     0.005
      O    28      S                    0.941     0.941     0.000
      O    28      Px                   0.806     0.798     0.008
      O    28      Py                   0.755     0.753     0.002
      O    28      Pz                   0.813     0.808     0.005
      O    29      S                    0.942     0.934     0.008
      O    29      Px                   0.827     0.796     0.030
      O    29      Py                   0.837     0.805     0.032
      O    29      Pz                   0.768     0.752     0.016
      O    30      S                    0.942     0.934     0.008
      O    30      Px                   0.828     0.816     0.013
      O    30      Py                   0.835     0.785     0.050
      O    30      Pz                   0.768     0.752     0.016
      O    31      S                    0.941     0.931     0.010
      O    31      Px                   0.793     0.777     0.016
      O    31      Py                   0.799     0.787     0.013
      O    31      Pz                   0.810     0.783     0.027
      O    32      S                    0.941     0.931     0.010
      O    32      Px                   0.820     0.809     0.011
      O    32      Py                   0.773     0.755     0.017
      O    32      Pz                   0.810     0.783     0.027
      O    33      S                    0.942     0.930     0.012
      O    33      Px                   0.814     0.802     0.012
      O    33      Py                   0.771     0.748     0.023
      O    33      Pz                   0.805     0.778     0.027
      O    34      S                    0.942     0.930     0.012
      O    34      Px                   0.791     0.771     0.019
      O    34      Py                   0.795     0.779     0.016
      O    34      Pz                   0.805     0.778     0.027
      O    35      S                    0.941     0.933     0.009
      O    35      Px                   0.807     0.780     0.028
      O    35      Py                   0.843     0.813     0.030
      O    35      Pz                   0.795     0.768     0.027
      O    36      S                    0.941     0.933     0.009
      O    36      Px                   0.816     0.803     0.013
      O    36      Py                   0.835     0.790     0.045
      O    36      Pz                   0.795     0.768     0.027
      O    37      S                    0.943     0.935     0.009
      O    37      Px                   0.819     0.775     0.045
      O    37      Py                   0.848     0.823     0.025
      O    37      Pz                   0.774     0.755     0.018
      O    38      S                    0.943     0.935     0.009
      O    38      Px                   0.837     0.818     0.019
      O    38      Py                   0.830     0.779     0.051
      O    38      Pz                   0.774     0.755     0.018
      O    39      S                    0.942     0.933     0.009
      O    39      Px                   0.768     0.732     0.036
      O    39      Py                   0.833     0.814     0.020
      O    39      Pz                   0.836     0.813     0.024
      O    40      S                    0.942     0.933     0.009
      O    40      Px                   0.828     0.796     0.032
      O    40      Py                   0.773     0.750     0.023
      O    40      Pz                   0.837     0.813     0.024
      O    41      S                    0.946     0.939     0.007
      O    41      Px                   0.756     0.729     0.027
      O    41      Py                   0.818     0.795     0.023
      O    41      Pz                   0.815     0.802     0.013
      O    42      S                    0.946     0.939     0.007
      O    42      Px                   0.820     0.782     0.038
      O    42      Py                   0.755     0.743     0.012
      O    42      Pz                   0.815     0.802     0.013
      V     1      S                    0.995     0.995     0.000
      V     1      Px                   0.995     0.995     0.000
      V     1      Py                   0.995     0.995     0.000
      V     1      Pz                   0.995     0.995     0.000
      V     1      Dzz                  0.352     0.320     0.032
      V     1      Dzy                  0.323     0.304     0.019
      V     1      Dzx                  0.323     0.299     0.024
      V     1      Dxx-yy               0.333     0.307     0.025
      V     1      Dxy                  0.323     0.292     0.031
      V     1      S                    0.091     0.090     0.001
      V     1      Px                   0.064     0.066    -0.001
      V     1      Py                   0.075     0.074     0.001
      V     1      Pz                   0.071     0.069     0.002
      V     2      S                    0.995     0.995     0.000
      V     2      Px                   0.996     0.996    -0.000
      V     2      Py                   0.995     0.995     0.000
      V     2      Pz                   0.995     0.995     0.000
      V     2      Dzz                  0.352     0.320     0.032
      V     2      Dzy                  0.330     0.299     0.031
      V     2      Dzx                  0.316     0.303     0.013
      V     2      Dxx-yy               0.326     0.308     0.019
      V     2      Dxy                  0.329     0.292     0.038
      V     2      S                    0.091     0.090     0.001
      V     2      Px                   0.078     0.077     0.001
      V     2      Py                   0.061     0.062    -0.001
      V     2      Pz                   0.071     0.069     0.002
      V     3      S                    0.996     0.996    -0.000
      V     3      Px                   0.995     0.995    -0.000
      V     3      Py                   0.995     0.995     0.000
      V     3      Pz                   0.995     0.995     0.000
      V     3      Dzz                  0.303     0.290     0.013
      V     3      Dzy                  0.331     0.305     0.027
      V     3      Dzx                  0.338     0.333     0.004
      V     3      Dxx-yy               0.337     0.327     0.010
      V     3      Dxy                  0.298     0.283     0.015
      V     3      S                    0.112     0.114    -0.003
      V     3      Px                   0.084     0.087    -0.003
      V     3      Py                   0.063     0.064    -0.001
      V     3      Pz                   0.075     0.079    -0.004
      V     4      S                    0.996     0.996    -0.000
      V     4      Px                   0.996     0.996     0.000
      V     4      Py                   0.995     0.994     0.000
      V     4      Pz                   0.995     0.995     0.000
      V     4      Dzz                  0.303     0.290     0.013
      V     4      Dzy                  0.333     0.323     0.010
      V     4      Dzx                  0.336     0.315     0.021
      V     4      Dxx-yy               0.299     0.288     0.011
      V     4      Dxy                  0.335     0.322     0.013
      V     4      S                    0.112     0.114    -0.003
      V     4      Px                   0.067     0.070    -0.003
      V     4      Py                   0.080     0.081    -0.001
      V     4      Pz                   0.075     0.079    -0.004
      V     5      S                    0.996     0.996     0.000
      V     5      Px                   0.995     0.995    -0.000
      V     5      Py                   0.995     0.995     0.000
      V     5      Pz                   0.995     0.995     0.000
      V     5      Dzz                  0.346     0.310     0.036
      V     5      Dzy                  0.330     0.295     0.035
      V     5      Dzx                  0.323     0.306     0.016
      V     5      Dxx-yy               0.332     0.314     0.018
      V     5      Dxy                  0.328     0.286     0.042
      V     5      S                    0.096     0.094     0.002
      V     5      Px                   0.081     0.080     0.001
      V     5      Py                   0.071     0.071    -0.001
      V     5      Pz                   0.078     0.077     0.001
      V     6      S                    0.996     0.996     0.000
      V     6      Px                   0.995     0.995     0.000
      V     6      Py                   0.995     0.995     0.000
      V     6      Pz                   0.995     0.995     0.000
      V     6      Dzz                  0.346     0.310     0.036
      V     6      Dzy                  0.325     0.301     0.024
      V     6      Dzx                  0.328     0.301     0.028
      V     6      Dxx-yy               0.332     0.304     0.028
      V     6      Dxy                  0.328     0.296     0.031
      V     6      S                    0.096     0.094     0.002
      V     6      Px                   0.071     0.073    -0.001
      V     6      Py                   0.080     0.078     0.002
      V     6      Pz                   0.078     0.077     0.001
      V     7      S                    0.996     0.996     0.000
      V     7      Px                   0.995     0.995    -0.000
      V     7      Py                   0.995     0.995     0.000
      V     7      Pz                   0.995     0.995     0.000
      V     7      Dzz                  0.335     0.304     0.031
      V     7      Dzy                  0.315     0.293     0.023
      V     7      Dzx                  0.313     0.290     0.023
      V     7      Dxx-yy               0.345     0.315     0.030
      V     7      Dxy                  0.341     0.320     0.021
      V     7      S                    0.097     0.096     0.000
      V     7      Px                   0.060     0.063    -0.003
      V     7      Py                   0.085     0.083     0.002
      V     7      Pz                   0.085     0.084     0.001
      V     8      S                    0.996     0.996     0.000
      V     8      Px                   0.995     0.995     0.000
      V     8      Py                   0.995     0.995     0.000
      V     8      Pz                   0.995     0.995     0.000
      V     8      Dzz                  0.335     0.304     0.031
      V     8      Dzy                  0.328     0.294     0.034
      V     8      Dzx                  0.300     0.289     0.011
      V     8      Dxx-yy               0.343     0.329     0.014
      V     8      Dxy                  0.343     0.306     0.037
      V     8      S                    0.097     0.096     0.000
      V     8      Px                   0.079     0.079     0.000
      V     8      Py                   0.066     0.068    -0.002
      V     8      Pz                   0.085     0.084     0.001
      V     9      S                    0.995     0.995     0.000
      V     9      Px                   0.995     0.995     0.000
      V     9      Py                   0.995     0.995     0.000
      V     9      Pz                   0.995     0.995     0.000
      V     9      Dzz                  0.348     0.317     0.031
      V     9      Dzy                  0.323     0.299     0.024
      V     9      Dzx                  0.325     0.301     0.024
      V     9      Dxx-yy               0.334     0.308     0.026
      V     9      Dxy                  0.327     0.299     0.028
      V     9      S                    0.095     0.094     0.001
      V     9      Px                   0.067     0.069    -0.001
      V     9      Py                   0.084     0.082     0.003
      V     9      Pz                   0.078     0.077     0.001
      V    10      S                    0.995     0.995     0.000
      V    10      Px                   0.995     0.995    -0.000
      V    10      Py                   0.995     0.995     0.000
      V    10      Pz                   0.995     0.995     0.000
      V    10      Dzz                  0.348     0.317     0.031
      V    10      Dzy                  0.330     0.301     0.029
      V    10      Dzx                  0.318     0.299     0.019
      V    10      Dxx-yy               0.331     0.314     0.017
      V    10      Dxy                  0.330     0.293     0.037
      V    10      S                    0.095     0.094     0.001
      V    10      Px                   0.089     0.087     0.002
      V    10      Py                   0.063     0.064    -0.001
      V    10      Pz                   0.078     0.077     0.001
      V    11      S                    0.995     0.995     0.000
      V    11      Px                   0.995     0.995     0.000
      V    11      Py                   0.995     0.995     0.000
      V    11      Pz                   0.995     0.995     0.000
      V    11      Dzz                  0.347     0.318     0.029
      V    11      Dzy                  0.313     0.288     0.024
      V    11      Dzx                  0.325     0.308     0.017
      V    11      Dxx-yy               0.333     0.318     0.014
      V    11      Dxy                  0.327     0.308     0.020
      V    11      S                    0.097     0.095     0.002
      V    11      Px                   0.073     0.071     0.002
      V    11      Py                   0.070     0.073    -0.003
      V    11      Pz                   0.073     0.072     0.001
      V    12      S                    0.995     0.995     0.000
      V    12      Px                   0.996     0.996     0.000
      V    12      Py                   0.994     0.994     0.000
      V    12      Pz                   0.995     0.995     0.000
      V    12      Dzz                  0.347     0.318     0.029
      V    12      Dzy                  0.333     0.315     0.018
      V    12      Dzx                  0.305     0.281     0.024
      V    12      Dxx-yy               0.331     0.321     0.010
      V    12      Dxy                  0.330     0.305     0.024
      V    12      S                    0.097     0.095     0.002
      V    12      Px                   0.077     0.079    -0.002
      V    12      Py                   0.066     0.065     0.001
      V    12      Pz                   0.073     0.072     0.001
     Fe     1      Dzz                  0.999     0.073     0.926
     Fe     1      Dzy                  0.994     0.228     0.766
     Fe     1      Dzx                  0.995     0.197     0.798
     Fe     1      Dxx-yy               0.996     0.157     0.839
     Fe     1      Dxy                  0.997     0.148     0.849
     Fe     1      S                    0.220     0.178     0.042
     Fe     1      Px                   0.089     0.078     0.011
     Fe     1      Py                   0.096     0.083     0.012
     Fe     1      Pz                   0.093     0.081     0.011
     Fe     2      Dzz                  0.999     0.073     0.926
     Fe     2      Dzy                  0.994     0.226     0.768
     Fe     2      Dzx                  0.995     0.198     0.796
     Fe     2      Dxx-yy               0.997     0.119     0.879
     Fe     2      Dxy                  0.996     0.186     0.810
     Fe     2      S                    0.220     0.178     0.042
     Fe     2      Px                   0.093     0.081     0.012
     Fe     2      Py                   0.092     0.080     0.011
     Fe     2      Pz                   0.093     0.081     0.011
     Fe     3      Dzz                  0.999     0.078     0.920
     Fe     3      Dzy                  0.992     0.232     0.761
[...]
              O 3  -- V 1                    0.62         0.01          1.74216
              O 40 -- V 10                   0.62         0.01          1.74507
              O 39 -- V 9                    0.62         0.01          1.74507
              O 38 -- V 6                    0.60         0.01          1.74898
              O 37 -- V 5                    0.60         0.01          1.74898
              O 8  -- V 12                   0.60         0.01          1.75530
              O 7  -- V 11                   0.60         0.01          1.75530
              O 13 -- V 7                    0.54        -0.00          1.76861
              O 14 -- V 8                    0.54        -0.00          1.76861
              O 35 -- V 3                    0.57         0.01          1.77211
              O 36 -- V 4                    0.57         0.01          1.77211
              O 24 -- V 6                    0.52        -0.00          1.79734
              O 23 -- V 5                    0.52        -0.00          1.79734
              O 23 -- V 9                    0.53        -0.00          1.79910
              O 24 -- V 10                   0.53        -0.00          1.79910
              O 14 -- V 1                    0.50        -0.00          1.81486
              O 13 -- V 2                    0.50        -0.00          1.81486
              O 18 -- V 8                    0.48         0.01          1.82768
              O 17 -- V 7                    0.48         0.01          1.82768
              O 25 -- V 11                   0.49         0.00          1.85184
              O 26 -- V 12                   0.49         0.00          1.85184
              O 15 -- V 3                    0.47         0.01          1.87388
              O 16 -- V 4                    0.47         0.01          1.87388
              O 26 -- V 4                    0.40         0.00          1.88004
              O 25 -- V 3                    0.40         0.00          1.88004
              O 9  -- Fe 1                   0.35        -0.05          1.93763
              O 10 -- Fe 2                   0.35        -0.05          1.93763
              O 33 -- Fe 4                   0.30        -0.04          1.96536
              O 34 -- Fe 3                   0.30        -0.04          1.96536
              O 11 -- Fe 3                   0.30        -0.04          1.98867
              O 12 -- Fe 4                   0.30        -0.04          1.98867
              Li 6 -- O 28                   0.18         0.00          1.99790
              Li 5 -- O 27                   0.18         0.00          1.99790
              O 8  -- Fe 3                   0.28        -0.05          2.00148
              O 7  -- Fe 4                   0.28        -0.05          2.00148
              O 32 -- Fe 2                   0.31        -0.04          2.01986
              O 31 -- Fe 1                   0.31        -0.04          2.01986
              O 38 -- Fe 6                   0.29        -0.04          2.02139
              O 37 -- Fe 5                   0.29        -0.04          2.02139
              O 16 -- Fe 5                   0.31        -0.04          2.02328
              O 15 -- Fe 6                   0.31        -0.04          2.02328
              O 4  -- Fe 5                   0.28        -0.04          2.02829
              O 3  -- Fe 6                   0.28        -0.04          2.02829
              O 6  -- Fe 5                   0.28        -0.04          2.03194
              O 5  -- Fe 6                   0.28        -0.04          2.03194
              O 36 -- Fe 4                   0.25        -0.04          2.03335
              O 35 -- Fe 3                   0.25        -0.04          2.03335
              O 40 -- Fe 2                   0.27        -0.04          2.03563
              O 39 -- Fe 1                   0.27        -0.04          2.03563
              O 1  -- Fe 3                   0.27        -0.04          2.03794
              O 2  -- Fe 4                   0.27        -0.04          2.03794
              O 21 -- Fe 5                   0.30        -0.04          2.03957
              O 22 -- Fe 6                   0.30        -0.04          2.03957
              O 16 -- Fe 2                   0.28        -0.04          2.06130
              O 15 -- Fe 1                   0.28        -0.04          2.06130
              Li 3 -- O 7                    0.13         0.00          2.06416
              Li 4 -- O 8                    0.13         0.00          2.06416
              O 30 -- Fe 2                   0.24        -0.04          2.06423
              O 29 -- Fe 1                   0.24        -0.04          2.06423
              Li 4 -- O 39                   0.12         0.00          2.07178
              Li 3 -- O 40                   0.12         0.00          2.07178
              O 17 -- Fe 1                   0.18        -0.04          2.08177
              O 18 -- Fe 2                   0.18        -0.04          2.08177
              Li 1 -- O 20                   0.18         0.00          2.08805
              Li 2 -- O 19                   0.18         0.00          2.08805
              Li 5 -- O 29                   0.14         0.00          2.08835
              Li 6 -- O 30                   0.14         0.00          2.08835
              O 41 -- Fe 3                   0.24        -0.04          2.08896
              O 42 -- Fe 4                   0.24        -0.04          2.08896
              Li 2 -- O 5                    0.09         0.00          2.10137
              Li 1 -- O 6                    0.09         0.00          2.10137
              Li 1 -- O 28                   0.14         0.00          2.10141
              Li 2 -- O 27                   0.14         0.00          2.10141
              Li 4 -- O 35                   0.14         0.00          2.10604
              Li 3 -- O 36                   0.14         0.00          2.10604
              O 18 -- V 4                    0.24         0.00          2.11058
              O 17 -- V 3                    0.24         0.00          2.11058
              Li 4 -- O 4                    0.14         0.00          2.11208
              Li 3 -- O 3                    0.14         0.00          2.11208
              Li 6 -- O 2                    0.13         0.00          2.13485
              Li 5 -- O 1                    0.13         0.00          2.13485
              Li 1 -- O 37                   0.10         0.00          2.15565
              Li 2 -- O 38                   0.10         0.00          2.15565
              O 25 -- Fe 6                   0.17        -0.04          2.19089
              O 26 -- Fe 5                   0.17        -0.04          2.19089
              Li 6 -- O 18                   0.06         0.00          2.22725
              Li 5 -- O 17                   0.06         0.00          2.22725
              Li 6 -- O 20                  -0.01        -0.00          2.38386
              Li 5 -- O 19                  -0.01        -0.00          2.38386
              Li 1 -- O 41                   0.06        -0.00          2.41581
              Li 2 -- O 42                   0.06        -0.00          2.41581
              Li 4 -- O 21                   0.01         0.00          2.50230
              Li 3 -- O 22                   0.01         0.00          2.50230
              O 15 -- O 25                  -0.05        -0.01          2.51317
              O 16 -- O 26                  -0.05        -0.01          2.51317
              O 16 -- O 18                  -0.06        -0.01          2.54119
              O 15 -- O 17                  -0.06        -0.01          2.54119
              O 17 -- O 35                  -0.05        -0.00          2.61402
              O 18 -- O 36                  -0.05        -0.00          2.61402
              O 35 -- V 7                   -0.00        -0.00          2.64255
              O 36 -- V 8                   -0.00        -0.00          2.64255
              O 6  -- O 37                  -0.04        -0.00          2.66760
              O 5  -- O 38                  -0.04        -0.00          2.66760
              O 8  -- O 35                  -0.04        -0.00          2.68873
              O 7  -- O 36                  -0.04        -0.00          2.68873
              O 18 -- O 30                  -0.04        -0.00          2.69465
              O 17 -- O 29                  -0.04        -0.00          2.69465
              O 35 -- O 41                  -0.04        -0.00          2.70381
              O 36 -- O 42                  -0.04        -0.00          2.70381
              O 29 -- O 39                  -0.04        -0.00          2.71316
              O 30 -- O 40                  -0.04        -0.00          2.71316
              O 14 -- O 42                  -0.01        -0.00          2.73098
              O 13 -- O 41                  -0.01        -0.00          2.73098
              O 4  -- O 26                  -0.04        -0.00          2.75256
              O 3  -- O 25                  -0.04        -0.00          2.75256
              O 10 -- O 28                   0.00        -0.00          2.75641
              O 9  -- O 27                   0.00        -0.00          2.75641
              O 17 -- O 19                  -0.02        -0.00          2.75748
              O 18 -- O 20                  -0.02        -0.00          2.75748
              O 4  -- O 21                  -0.03        -0.00          2.76875
              O 3  -- O 22                  -0.03        -0.00          2.76875
              O 29 -- O 33                   0.00        -0.00          2.77377
              O 30 -- O 34                   0.00        -0.00          2.77377
              O 3  -- O 5                   -0.03        -0.00          2.77751
              O 4  -- O 6                   -0.03        -0.00          2.77751
              O 5  -- O 11                   0.00        -0.00          2.77799
              O 6  -- O 12                   0.00        -0.00          2.77799
              O 1  -- O 23                  -0.01        -0.00          2.78057
              O 2  -- O 24                  -0.01        -0.00          2.78057
              O 13 -- O 21                  -0.00        -0.00          2.78711
              O 14 -- O 22                  -0.00        -0.00          2.78711
              O 20 -- O 26                  -0.01         0.00          2.79011
              O 19 -- O 25                  -0.01         0.00          2.79011
              O 25 -- O 35                  -0.01        -0.00          2.79065
              O 26 -- O 36                  -0.01        -0.00          2.79065
              O 14 -- O 33                  -0.00         0.00          2.79699
              O 13 -- O 34                  -0.00         0.00          2.79699
              O 24 -- O 40                  -0.01        -0.00          2.79795
              O 23 -- O 39                  -0.01        -0.00          2.79795
              O 33 -- O 42                  -0.03        -0.00          2.79820
              O 34 -- O 41                  -0.03        -0.00          2.79820
              O 1  -- O 11                  -0.03        -0.00          2.79868
              O 2  -- O 12                  -0.03        -0.00          2.79868
              O 4  -- O 34                   0.00        -0.00          2.80712
              O 3  -- O 33                   0.00        -0.00          2.80712
              O 20 -- O 36                   0.00        -0.00          2.80995
              O 19 -- O 35                   0.00        -0.00          2.80995
              O 22 -- O 42                   0.00        -0.00          2.81645
              O 21 -- O 41                   0.00        -0.00          2.81645
              O 2  -- O 7                   -0.03        -0.00          2.81813
              O 1  -- O 8                   -0.03        -0.00          2.81813
              O 24 -- O 38                  -0.00        -0.00          2.82076
              O 23 -- O 37                  -0.00        -0.00          2.82076
              O 10 -- O 40                  -0.03        -0.00          2.82249
              O 9  -- O 39                  -0.03        -0.00          2.82249
              O 5  -- O 23                  -0.00        -0.00          2.82447
              O 6  -- O 24                  -0.00        -0.00          2.82447
              O 12 -- O 40                   0.00         0.00          2.82628
              O 11 -- O 39                   0.00         0.00          2.82628
              O 22 -- O 38                  -0.03        -0.00          2.82720
              O 21 -- O 37                  -0.03        -0.00          2.82720
              O 24 -- O 32                  -0.00        -0.00          2.83090
              O 23 -- O 31                  -0.00        -0.00          2.83090
              O 1  -- O 31                   0.00        -0.00          2.83248
              O 2  -- O 32                   0.00        -0.00          2.83248
              O 8  -- O 28                   0.00         0.00          2.83252
              O 7  -- O 27                   0.00         0.00          2.83252
              O 7  -- O 9                    0.00        -0.00          2.83366
              O 8  -- O 10                   0.00        -0.00          2.83366
              O 17 -- O 31                  -0.03        -0.00          2.83378
              O 18 -- O 32                  -0.03        -0.00          2.83378
              O 12 -- O 36                  -0.03        -0.00          2.83892
              O 11 -- O 35                  -0.03        -0.00          2.83892
              Li 2 -- O 14                  -0.03         0.00          2.84228
              Li 1 -- O 13                  -0.03         0.00          2.84228
              O 32 -- O 40                  -0.03        -0.00          2.84530
              O 31 -- O 39                  -0.03        -0.00          2.84530
              O 11 -- O 23                   0.00         0.00          2.84702
              O 12 -- O 24                   0.00         0.00          2.84702
              O 11 -- O 34                  -0.02        -0.00          2.84711
              O 12 -- O 33                  -0.02        -0.00          2.84711
              O 13 -- O 17                  -0.00        -0.00          2.85048
              O 14 -- O 18                  -0.00        -0.00          2.85048
              O 4  -- O 13                  -0.00        -0.00          2.86563
              O 3  -- O 14                  -0.00        -0.00          2.86563
              O 1  -- O 34                  -0.02        -0.00          2.87769
              O 2  -- O 33                  -0.02        -0.00          2.87769
              O 22 -- O 25                  -0.02        -0.00          2.88016
              O 21 -- O 26                  -0.02        -0.00          2.88016
              O 20 -- O 28                  -0.02        -0.00          2.88346
              O 19 -- O 27                  -0.02        -0.00          2.88346
              O 16 -- O 30                  -0.03        -0.00          2.88624
              O 15 -- O 29                  -0.03        -0.00          2.88624
              O 9  -- O 25                  -0.00         0.00          2.88716
              O 10 -- O 26                  -0.00         0.00          2.88716
              O 26 -- O 28                  -0.00        -0.00          2.89237
              O 25 -- O 27                  -0.00        -0.00          2.89237
              O 10 -- O 34                  -0.01         0.00          2.89275
              O 9  -- O 33                  -0.01         0.00          2.89275
              O 32 -- O 38                   0.00         0.00          2.89692
              O 31 -- O 37                   0.00         0.00          2.89692
              O 14 -- O 29                  -0.00         0.00          2.89812
              O 13 -- O 30                  -0.00         0.00          2.89812
              O 9  -- O 15                  -0.02        -0.00          2.90742
              O 10 -- O 16                  -0.02        -0.00          2.90742
              O 9  -- O 31                  -0.02        -0.00          2.91529
              O 10 -- O 32                  -0.02        -0.00          2.91529
              Li 3 -- O 24                  -0.03         0.00          2.91919
              Li 4 -- O 23                  -0.03         0.00          2.91919
              O 7  -- O 33                  -0.02        -0.00          2.93085
              O 8  -- O 34                  -0.02        -0.00          2.93085
              O 8  -- O 41                  -0.02        -0.00          2.93165
              O 7  -- O 42                  -0.02        -0.00          2.93165
              O 12 -- O 42                  -0.02        -0.00          2.93506
              O 11 -- O 41                  -0.02        -0.00          2.93506
              O 4  -- O 30                   0.01        -0.00          2.93525
              O 3  -- O 29                   0.01        -0.00          2.93525
              O 7  -- O 25                  -0.00        -0.00          2.93757
              O 8  -- O 26                  -0.00        -0.00          2.93757
              O 1  -- O 37                   0.01        -0.00          2.94349
              O 2  -- O 38                   0.01        -0.00          2.94349
              Li 5 -- O 23                  -0.02        -0.00          2.94619
              Li 6 -- O 24                  -0.02        -0.00          2.94619
              O 17 -- O 21                   0.00         0.00          2.94713
              O 18 -- O 22                   0.00         0.00          2.94713
              O 27 -- O 29                  -0.02        -0.00          2.95253
              O 28 -- O 30                  -0.02        -0.00          2.95253
              O 15 -- O 19                   0.00        -0.00          2.95932
              O 16 -- O 20                   0.00        -0.00          2.95932
              O 6  -- O 30                  -0.02         0.00          2.96337
              O 5  -- O 29                  -0.02         0.00          2.96337
              O 6  -- O 16                  -0.02        -0.00          2.96460
              O 5  -- O 15                  -0.02        -0.00          2.96460
              O 14 -- O 27                  -0.02        -0.00          2.97076
              O 13 -- O 28                  -0.02        -0.00          2.97076
              O 7  -- V 6                   -0.01        -0.00          2.98730
              O 8  -- V 5                   -0.01        -0.00          2.98730
              O 29 -- V 9                   -0.03         0.00          2.99009
              O 30 -- V 10                  -0.03         0.00          2.99009
              O 22 -- O 36                  -0.02        -0.00          2.99092
              O 21 -- O 35                  -0.02        -0.00          2.99092
              O 6  -- O 40                   0.01        -0.00          2.99568
              O 5  -- O 39                   0.01        -0.00          2.99568
================================================================================


Writing analysis data to ml_dos.castep_bin

Writing model to ml_dos.check
 
 A BibTeX formatted list of references used in this run has been written to 
 ml_dos.bib
 
Initialisation time =     14.72 s
Calculation time    =   5709.20 s
Finalisation time   =      8.41 s
Total time          =   5732.33 s
Peak Memory Use     = 5616912 kB
 
Overall parallel efficiency rating: Poor (45%)
 
Data was distributed by:-
G-vector (40-way); efficiency rating: Poor (45%)
