 +-------------------------------------------------+
 |                                                 |
 |      CCC   AA    SSS  TTTTT  EEEEE  PPPP        |
 |     C     A  A  S       T    E      P   P       |
 |     C     AAAA   SS     T    EEE    PPPP        |
 |     C     A  A     S    T    E      P           |
 |      CCC  A  A  SSS     T    EEEEE  P           |
 |                                                 |
 +-------------------------------------------------+
 |                                                 |
 | Welcome to Academic Release CASTEP version 25.12|
 | Ab Initio Total Energy Program                  |
 |                                                 |
 | Authors:                                        |
 | M. Segall, M. Probert, C. Pickard, P. Hasnip,   |
 | S. Clark, K. Refson, J. R. Yates,               |
 | A. Bartok-Partay, M. Payne                      |
 |                                                 |
 | Contributors:                                   |
 | P. Lindan, P. Haynes, J. White, V. Milman,      |
 | N. Govind, M. Gibson, P. Tulip, V. Cocula,      |
 | B. Montanari, D. Quigley, M. Glover,            |
 | L. Bernasconi, A. Perlov, M. Plummer,           |
 | E. McNellis, J. Meyer, J. Gale, D. Jochym       |
 | J. Aarons, B. Walker, R. Gillen, D. Jones       |
 | T. Green, I. J. Bush, C. J. Armstrong,          |
 | E. J. Higgins, E. L. Brown, M. S. McFly,        |
 | J. Wilkins, B-C. Shih, P. J. P. Byrne,          |
 | R. J. Maurer, J. C. Womack, J. Dziedzic,        |
 | L. LeBlanc, T. K. Stenczel, J. Kermode,         |
 | S. Sturniolo, B. Shi, B. Durham, M. Evans,      |
 | M. J. Smith, A. Tamerus, Z. Hawkhead,           |
 | V. Ravindran, T. Hollins, S. A. Joyce,          |
 | R. T. Strong, A. M. Reilly, S. J. Donaldson,    |
 | J. C. A. Prentice                               |
 |                                                 |
 | Copyright (c) 2000 - 2024                       |
 |                                                 |
 |     Distributed under license from Cambridge    |
 |     Enterprise for academic use only.           |
 |                                                 |
 | Please cite                                     |
 |                                                 |
 |     "First principles methods using CASTEP"     |
 |                                                 |
 |         Zeitschrift fuer Kristallographie       |
 |           220(5-6) pp. 567-570 (2005)           |
 |                                                 |
 | S. J. Clark, M. D. Segall, C. J. Pickard,       |
 | P. J. Hasnip, M. J. Probert, K. Refson,         |
 | M. C. Payne                                     |
 |                                                 |
 |       in all publications arising from          |
 |              your use of CASTEP                 |
 |                                                 |
 +-------------------------------------------------+
 |                                                 |
 |              http://www.castep.org              |
 |                                                 |
 +-------------------------------------------------+



 Compiled for linux_x86_64_gfortran10 on Sun, 13 Jul 2025 14:49:40 -0400
 from code version git version unavailable
 Compiler: GNU Fortran 13.3.0; Optimisation: fast
 Comms   : Open MPI v5.0.3
 MATHLIBS: flexiblas (IMKL) (LAPACK version 3.12.0)
 FFT Lib : fftw3 version fftw-3.3.10-sse2-avx-avx2-avx2_128
 Fundamental constants values: CODATA 2018

 Run started: Thu, 30 Oct 2025 02:57:12 -0400

 Atomic calculation performed for Li: 1s2 2s1

 Converged in 47 iterations to an ae energy of -202.784 eV

   ============================================================                
   | Pseudopotential Report - Date of generation 30-10-2025   |                
   ------------------------------------------------------------                
   | Element: Li Ionic charge:  3.00 Level of theory: PBE     |                
   | Atomic Solver: Koelling-Harmon                           |                
   |                                                          |                
   |               Reference Electronic Structure             |                
   |         Orbital         Occupation         Energy        |                
   |            1s              2.000           -1.906        |                
   |            2s              1.000           -0.106        |                
   |                                                          |                
   |                 Pseudopotential Definition               |                
   |        Beta     l      e      Rc     scheme   norm       |                
   |          1      0   -1.906   1.001     qc      0         |                
   |          2      0   -0.106   1.001     qc      0         |                
   |          3      0    0.250   1.001     qc      0         |                
   |         loc     1    0.000   1.001     pn      0         |                
   |                                                          |                
   | Augmentation charge Rinner = 0.699                       |                
   | No partial core correction                               |                
   ------------------------------------------------------------                
   | "1|1.0|14|16|18|10U:20(qc=7)"                            |                
   ------------------------------------------------------------                
   |      Author: Chris J. Pickard, Cambridge University      |                
   ============================================================                

 Atomic calculation performed for O: 1s2 2s2 2p4

 Converged in 61 iterations to an ae energy of -2040.902 eV

   ============================================================                
   | Pseudopotential Report - Date of generation 30-10-2025   |                
   ------------------------------------------------------------                
   | Element: O Ionic charge:  6.00 Level of theory: PBE      |                
   | Atomic Solver: Koelling-Harmon                           |                
   |                                                          |                
   |               Reference Electronic Structure             |                
   |         Orbital         Occupation         Energy        |                
   |            2s              2.000           -0.881        |                
   |            2p              4.000           -0.332        |                
   |                                                          |                
   |                 Pseudopotential Definition               |                
   |        Beta     l      e      Rc     scheme   norm       |                
   |          1      0   -0.881   1.100     qc      0         |                
   |          2      0    0.250   1.100     qc      0         |                
   |          3      1   -0.332   1.100     qc      0         |                
   |          4      1    0.250   1.100     qc      0         |                
   |         loc     2    0.000   1.100     pn      0         |                
   |                                                          |                
   | Augmentation charge Rinner = 0.769                       |                
   | Partial core correction Rc = 0.769                       |                
   ------------------------------------------------------------                
   | "2|1.1|17|20|23|20:21(qc=8)"                             |                
   ------------------------------------------------------------                
   |      Author: Chris J. Pickard, Cambridge University      |                
   ============================================================                

 Atomic calculation performed for P: 1s2 2s2 2p6 3s2 3p3

 Converged in 56 iterations to an ae energy of -9303.626 eV

   ============================================================                
   | Pseudopotential Report - Date of generation 30-10-2025   |                
   ------------------------------------------------------------                
   | Element: P Ionic charge:  5.00 Level of theory: PBE      |                
   | Atomic Solver: Koelling-Harmon                           |                
   |                                                          |                
   |               Reference Electronic Structure             |                
   |         Orbital         Occupation         Energy        |                
   |            3s              2.000           -0.513        |                
   |            3p              3.000           -0.202        |                
   |                                                          |                
   |                 Pseudopotential Definition               |                
   |        Beta     l      e      Rc     scheme   norm       |                
   |          1      0   -0.513   1.807     qc      0         |                
   |          2      0    0.250   1.807     qc      0         |                
   |          3      1   -0.202   1.807     qc      0         |                
   |          4      1    0.250   1.807     qc      0         |                
   |          5      2    0.000   1.807     qc      0         |                
   |          6      2    0.250   1.807     qc      0         |                
   |         loc     3    0.000   1.807     pn      0         |                
   |                                                          |                
   | Augmentation charge Rinner = 1.263                       |                
   | Partial core correction Rc = 1.263                       |                
   ------------------------------------------------------------                
   | "3|1.8|4|4|5|30:31:32"                                   |                
   ------------------------------------------------------------                
   |      Author: Chris J. Pickard, Cambridge University      |                
   ============================================================                

 Atomic calculation performed for Ge: 1s2 2s2 2p6 3s2 3p6 3d10 4s2 4p2

 Converged in 85 iterations to an ae energy of -57112.123 eV

   ============================================================                
   | Pseudopotential Report - Date of generation 30-10-2025   |                
   ------------------------------------------------------------                
   | Element: Ge Ionic charge: 14.00 Level of theory: PBE     |                
   | Atomic Solver: Koelling-Harmon                           |                
   |                                                          |                
   |               Reference Electronic Structure             |                
   |         Orbital         Occupation         Energy        |                
   |            3d             10.000           -1.077        |                
   |            4s              2.000           -0.431        |                
   |            4p              2.000           -0.143        |                
   |                                                          |                
   |                 Pseudopotential Definition               |                
   |        Beta     l      e      Rc     scheme   norm       |                
   |          1      0   -0.431   1.999     qc      0         |                
   |          2      0    0.250   1.999     qc      0         |                
   |          3      1   -0.143   1.999     qc      0         |                
   |          4      1    0.250   1.999     qc      0         |                
   |          5      2   -1.077   1.999     qc      0         |                
   |          6      2    0.250   1.999     qc      0         |                
   |         loc     3    0.000   1.999     pn      0         |                
   |                                                          |                
   | Augmentation charge Rinner = 1.397                       |                
   | Partial core correction Rc = 1.397                       |                
   ------------------------------------------------------------                
   | "3|2.0|10|12|13|40:41:32(qc=6)"                          |                
   ------------------------------------------------------------                
   |      Author: Chris J. Pickard, Cambridge University      |                
   ============================================================                

 Pseudo atomic calculation performed for Li 1s2 2s1

 Converged in 18 iterations to a total energy of -200.5098 eV

 Pseudo atomic calculation performed for O 2s2 2p4

 Converged in 24 iterations to a total energy of -432.3399 eV

 Pseudo atomic calculation performed for P 3s2 3p3

 Converged in 18 iterations to a total energy of -214.2237 eV

 Pseudo atomic calculation performed for Ge 3d10 4s2 4p2

 Converged in 28 iterations to a total energy of -2533.5726 eV
 Calculation parallelised over 12 processes.
 Data is distributed by G-vector(3-way) and k-point(4-way)

 ************************************ Title ************************************
 

 ***************************** General Parameters ******************************
  
 output verbosity                               : normal  (1)
 write checkpoint data to                       : ml_dos.check
 type of calculation                            : Electronic Spectroscopy
 stress calculation                             : off
 density difference calculation                 : off
 electron localisation func (ELF) calculation   : off
 Hirshfeld analysis                             : off
 polarisation (Berry phase) analysis            : off
 molecular orbital projected DOS                : off
 deltaSCF calculation                           : off
 unlimited duration calculation
 timing information                             : on
 memory usage estimate                          : on
 write extra output files                       : on
 write final potential to formatted file        : off
 write final density to formatted file          : off
 write BibTeX reference list                    : on
 write OTFG pseudopotential files               : on
 write electrostatic potential file             : on
 write bands file                               : on
 checkpoint writing                             : both castep_bin and check files
  
 output         length unit                     : A
 output           mass unit                     : amu
 output           time unit                     : ps
 output         charge unit                     : e
 output           spin unit                     : hbar/2
 output         energy unit                     : eV
 output          force unit                     : eV/A
 output       velocity unit                     : A/ps
 output       pressure unit                     : GPa
 output     inv_length unit                     : 1/A
 output      frequency unit                     : cm-1
 output force constant unit                     : eV/A**2
 output         volume unit                     : A**3
 output   IR intensity unit                     : (D/A)**2/amu
 output         dipole unit                     : D
 output         efield unit                     : eV/A/e
 output        entropy unit                     : J/mol/K
 output    efield chi2 unit                     : pm/V
  
 wavefunctions paging                           : none
 random number generator seed                   :   25712697
 data distribution                              : optimal for this architecture
 optimization strategy                          : balance speed and memory

 *********************** Exchange-Correlation Parameters ***********************
  
 using functional                               : Perdew Burke Ernzerhof
 relativistic treatment                         : Koelling-Harmon
 DFT+D: Semi-empirical dispersion correction    : off

 ************************* Pseudopotential Parameters **************************
  
 pseudopotential representation                 : reciprocal space
 <beta|phi> representation                      : reciprocal space
 spin-orbit coupling                            : off

 **************************** Basis Set Parameters *****************************
  
 plane wave basis set cut-off                   :   900.0000   eV
 size of standard grid                          :     2.0000
 size of   fine   gmax                          :    30.7390   1/A
 finite basis set correction                    : none

 **************************** Electronic Parameters ****************************
  
 number of  electrons                           :  236.0    
 net charge of system                           :  0.000    
 treating system as non-spin-polarized
 number of bands                                :        142

 ********************* Electronic Minimization Parameters **********************
  
 Method: Treating system as metallic with density mixing treatment of electrons,
         and number of  SD  steps               :          1
         and number of  CG  steps               :          4
  
 total energy / atom convergence tol.           : 0.1000E-05   eV
 eigen-energy convergence tolerance             : 0.3051E-06   eV
 max force / atom convergence tol.              : ignored
 convergence tolerance window                   :          3   cycles
 max. number of SCF cycles                      :        100
 number of fixed-spin iterations                :         10
 smearing scheme                                : Gaussian
 smearing width                                 : 0.2000       eV
 Fermi energy convergence tolerance             : 0.2721E-13   eV
 periodic dipole correction                     : NONE

 ************************** Density Mixing Parameters **************************
  
 density-mixing scheme                          : Pulay
 max. length of mixing history                  :         20
 charge density mixing amplitude                : 0.2000    
 cut-off energy for mixing                      :  900.0       eV

 *********************** Population Analysis Parameters ************************
  
 Population analysis with cutoff                :  3.000       A
 Population analysis output                     : summary and pdos components
 Partial DOS weights calculated

 ********************* Electronic Spectroscopy Parameters **********************
  
 electronic spectroscopy with theory level      : DFT       
 spectroscopy calculation                       : density of states
 max. number of iterations                      :         60
 max. steps per iteration                       :          5
 number of bands / k-point                      :        202
 band convergence tolerance                     : 0.1000E-05   eV
 write orbitals file                            : off

 *******************************************************************************
  

                           -------------------------------
                                      Unit Cell
                           -------------------------------
        Real Lattice(A)                      Reciprocal Lattice(1/A)
     8.4454120     0.0000000     0.0000000        0.743976174  -0.437190466  -0.307777068
     4.2795630     7.2826220     0.0000000        0.000000000   0.862764168  -0.307791079
     4.2795580     2.4493050     6.8656070        0.000000000   0.000000000   0.915168216

                       Lattice parameters(A)       Cell Angles
                    a =      8.445412          alpha =   59.580632
                    b =      8.446966          beta  =   59.583161
                    c =      8.452826          gamma =   59.559784

                       Current cell volume =           422.267396       A**3
                                   density =             2.070134   AMU/A**3
                                           =             3.437539     g/cm^3

                           -------------------------------
                                     Cell Contents
                           -------------------------------
                         Total number of ions in cell =   36
                      Total number of species in cell =    4
                        Max number of any one species =   24

            xxxxxxxxxxxxxxxxxxxxxxxxxxxxxxxxxxxxxxxxxxxxxxxxxxxxxxxxxxxx
            x  Element    Atom        Fractional coordinates of atoms  x
            x            Number           u          v          w      x
            x----------------------------------------------------------x
            x  Li           1         0.500188   0.498998   0.500005   x 
            x  Li           2         0.000255   0.998724   0.000394   x 
            x  O            1         0.507475   0.129776   0.298019   x 
            x  O            2         0.129445   0.297643   0.509738   x 
            x  O            3         0.295716   0.507848   0.130961   x 
            x  O            4         0.009284   0.797410   0.629525   x 
            x  O            5         0.797258   0.630383   0.006603   x 
            x  O            6         0.630285   0.009170   0.796290   x 
            x  O            7         0.492762   0.870202   0.702232   x 
            x  O            8         0.870024   0.702852   0.492498   x 
            x  O            9         0.701821   0.490792   0.870789   x 
            x  O           10         0.992673   0.203076   0.369871   x 
            x  O           11         0.202630   0.370176   0.991428   x 
            x  O           12         0.370631   0.991108   0.202335   x 
            x  O           13         0.442869   0.234345   0.577722   x 
            x  O           14         0.234341   0.578377   0.442171   x 
            x  O           15         0.577706   0.443626   0.233441   x 
            x  O           16         0.943479   0.077652   0.733856   x 
            x  O           17         0.077769   0.734039   0.943052   x 
            x  O           18         0.733562   0.942887   0.077967   x 
            x  O           19         0.556422   0.766218   0.422836   x 
            x  O           20         0.765991   0.422504   0.556497   x 
            x  O           21         0.422319   0.556483   0.766666   x 
            x  O           22         0.056094   0.922835   0.266419   x 
            x  O           23         0.922327   0.265942   0.056520   x 
            x  O           24         0.266742   0.056176   0.922428   x 
            x  P            1         0.538118   0.961586   0.250362   x 
            x  P            2         0.961805   0.250140   0.538426   x 
            x  P            3         0.249763   0.538202   0.961932   x 
            x  P            4         0.038433   0.750362   0.461773   x 
            x  P            5         0.749985   0.461776   0.037747   x 
            x  P            6         0.461942   0.038547   0.749578   x 
            x  Ge           1         0.358641   0.358978   0.358829   x 
            x  Ge           2         0.858766   0.858832   0.858558   x 
            x  Ge           3         0.641251   0.641056   0.641391   x 
            x  Ge           4         0.141231   0.141281   0.141141   x 
            xxxxxxxxxxxxxxxxxxxxxxxxxxxxxxxxxxxxxxxxxxxxxxxxxxxxxxxxxxxx


                         No user defined ionic velocities

                           -------------------------------
                                   Details of Species
                           -------------------------------

                               Mass of species in AMU
                                    Li    6.9410000
                                    O   15.9994000
                                    P   30.9737600
                                    Ge   72.6100000

                          Electric Quadrupole Moment (Barn)
                                    Li   -0.0401000 Isotope   7
                                    O   -0.0255800 Isotope  17
                                    P    1.0000000 No Isotope Defined
                                    Ge   -0.1730000 Isotope  73

                          Files used for pseudopotentials:
                                    Li 1|1.0|14|16|18|10U:20(qc=7)
                                    O 2|1.1|17|20|23|20:21(qc=8)
                                    P 3|1.8|4|4|5|30:31:32
                                    Ge 3|2.0|10|12|13|40:41:32(qc=6)

                           -------------------------------
                              k-Points For BZ Sampling
                           -------------------------------
                       MP grid size for SCF calculation is  4  4  4
                            with an offset of   0.000  0.000  0.000
                       Number of kpoints used =            32

                           -------------------------------
                               Symmetry and Constraints
                           -------------------------------

                      Maximum deviation from symmetry =  0.00000         ANG

                      Number of symmetry operations   =           1
                      Number of ionic constraints     =           3
                      Point group of crystal =     1: C1, 1, 1
                      Space group of crystal =     1: P1, P 1

             Set iprint > 1 for details on symmetry rotations/translations

                         Centre of mass is constrained
             Set iprint > 2 for details of linear ionic constraints

                         Number of cell constraints= 0
                         Cell constraints are:  1 2 3 4 5 6

                         External pressure/stress (GPa)
                          0.00000   0.00000   0.00000
                                    0.00000   0.00000
                                              0.00000
 
+---------------- MEMORY AND SCRATCH DISK ESTIMATES PER PROCESS --------------+
|                                                     Memory          Disk    |
| Baseline code, static data and system overhead      815.0 MB         0.0 MB |
| BLAS internal memory storage                          0.0 MB         0.0 MB |
| Model and support data                             1300.1 MB         0.0 MB |
| Electronic energy minimisation requirements         402.9 MB         0.0 MB |
| Force calculation requirements                       35.2 MB         0.0 MB |
|                                               ----------------------------- |
| Approx. total storage required per process         2518.0 MB         0.0 MB |
|                                                                             |
| Requirements will fluctuate during execution and may exceed these estimates |
+-----------------------------------------------------------------------------+
Calculating approximate eigenstates for fixed initial Hamiltonian
Cut-off for approx. calculation is   98.987 eV
Improving approx. states at cut-off of  450.000 eV
Resetting cut-off to  900.000 eV
Calculating total energy with cut-off of  900.000 eV.
------------------------------------------------------------------------ <-- SCF
SCF loop      Energy           Fermi           Energy gain       Timer   <-- SCF
                               energy          per atom          (sec)   <-- SCF
------------------------------------------------------------------------ <-- SCF
Initial  -2.19534294E+004  0.00000000E+000                        60.34  <-- SCF
      1  -2.24628733E+004  3.98021799E+000   1.41512185E+001     132.82  <-- SCF
      2  -2.24642054E+004  3.98941298E+000   3.70020502E-002     194.75  <-- SCF
      3  -2.24510719E+004  4.18092114E+000  -3.64818128E-001     245.93  <-- SCF
      4  -2.24447660E+004  4.43918786E+000  -1.75163906E-001     314.05  <-- SCF
      5  -2.24448557E+004  4.38812044E+000   2.49191956E-003     376.62  <-- SCF
      6  -2.24448433E+004  4.41645690E+000  -3.46032412E-004     418.61  <-- SCF
      7  -2.24448616E+004  4.47370625E+000   5.08687421E-004     463.39  <-- SCF
      8  -2.24448609E+004  4.47395321E+000  -1.73413058E-005     506.64  <-- SCF
      9  -2.24448616E+004  4.47752804E+000   1.77135770E-005     550.14  <-- SCF
     10  -2.24448614E+004  4.47711172E+000  -4.35340667E-006     581.81  <-- SCF
     11  -2.24448614E+004  4.47743920E+000  -1.50751699E-008     616.32  <-- SCF
     12  -2.24448614E+004  4.47737737E+000  -1.92121753E-007     643.98  <-- SCF
------------------------------------------------------------------------ <-- SCF
 
Final energy, E             =  -22444.86141992     eV
Final free energy (E-TS)    =  -22444.86141992     eV
(energies not corrected for finite basis set)
 
NB est. 0K energy (E-0.5TS)      =  -22444.86141992     eV
 

Writing analysis data to ml_dos.castep_bin

Writing model to ml_dos.check
 
+---------------- MEMORY AND SCRATCH DISK ESTIMATES PER PROCESS --------------+
|                                                     Memory          Disk    |
|                                               ----------------------------- |
| Approx. total storage required per process         1285.4 MB         0.0 MB |
|                                                                             |
| Requirements will fluctuate during execution and may exceed these estimates |
+-----------------------------------------------------------------------------+
 
  =====================================================================
  +                                                                   +
  +                 Calculation of Spectral Properties                +
  +                                                                   +
  + Calculation re-parallelised over 12 processes.                    +
  + There are 32 k-points distributed across 4 k-point groups.        +
  + Data distributed by G-vector(3-way), k-point(4-way), band(1-way)  +
  + Data distributed by G-vector(3-way), k-point(4-way)               +
  +                                                                   +
  =====================================================================

 Pseudo atomic calculation performed for Li 1s2 2s1

 Converged in 18 iterations to a total energy of -200.5098 eV

 Pseudo atomic calculation performed for O 2s2 2p4

 Converged in 24 iterations to a total energy of -432.3399 eV

 Pseudo atomic calculation performed for P 3s2 3p3

 Converged in 18 iterations to a total energy of -214.2237 eV

 Pseudo atomic calculation performed for Ge 3d10 4s2 4p2

 Converged in 28 iterations to a total energy of -2533.5726 eV
  Starting k-point:        1 of        8 Time:      0.00 sec  |<-- SPEC

 Pseudo atomic calculation performed for Li 1s2 2s1

 Converged in 18 iterations to a total energy of -200.5098 eV

 Pseudo atomic calculation performed for O 2s2 2p4

 Converged in 24 iterations to a total energy of -432.3399 eV

 Pseudo atomic calculation performed for P 3s2 3p3

 Converged in 18 iterations to a total energy of -214.2237 eV

 Pseudo atomic calculation performed for Ge 3d10 4s2 4p2

 Converged in 28 iterations to a total energy of -2533.5726 eV
  Starting k-point:        2 of        8 Time:     70.19 sec  |<-- SPEC

 Pseudo atomic calculation performed for Li 1s2 2s1

 Converged in 18 iterations to a total energy of -200.5098 eV

 Pseudo atomic calculation performed for O 2s2 2p4

 Converged in 24 iterations to a total energy of -432.3399 eV

 Pseudo atomic calculation performed for P 3s2 3p3

 Converged in 18 iterations to a total energy of -214.2237 eV

 Pseudo atomic calculation performed for Ge 3d10 4s2 4p2

 Converged in 28 iterations to a total energy of -2533.5726 eV
  Starting k-point:        3 of        8 Time:    142.92 sec  |<-- SPEC

 Pseudo atomic calculation performed for Li 1s2 2s1

 Converged in 18 iterations to a total energy of -200.5098 eV

 Pseudo atomic calculation performed for O 2s2 2p4

 Converged in 24 iterations to a total energy of -432.3399 eV

 Pseudo atomic calculation performed for P 3s2 3p3

 Converged in 18 iterations to a total energy of -214.2237 eV

 Pseudo atomic calculation performed for Ge 3d10 4s2 4p2

 Converged in 28 iterations to a total energy of -2533.5726 eV
  Starting k-point:        4 of        8 Time:    217.42 sec  |<-- SPEC

 Pseudo atomic calculation performed for Li 1s2 2s1

 Converged in 18 iterations to a total energy of -200.5098 eV

 Pseudo atomic calculation performed for O 2s2 2p4

 Converged in 24 iterations to a total energy of -432.3399 eV

 Pseudo atomic calculation performed for P 3s2 3p3

 Converged in 18 iterations to a total energy of -214.2237 eV

 Pseudo atomic calculation performed for Ge 3d10 4s2 4p2

 Converged in 28 iterations to a total energy of -2533.5726 eV
  Starting k-point:        5 of        8 Time:    291.87 sec  |<-- SPEC

 Pseudo atomic calculation performed for Li 1s2 2s1

 Converged in 18 iterations to a total energy of -200.5098 eV

 Pseudo atomic calculation performed for O 2s2 2p4

 Converged in 24 iterations to a total energy of -432.3399 eV

 Pseudo atomic calculation performed for P 3s2 3p3

 Converged in 18 iterations to a total energy of -214.2237 eV

 Pseudo atomic calculation performed for Ge 3d10 4s2 4p2

 Converged in 28 iterations to a total energy of -2533.5726 eV
  Starting k-point:        6 of        8 Time:    366.54 sec  |<-- SPEC

 Pseudo atomic calculation performed for Li 1s2 2s1

 Converged in 18 iterations to a total energy of -200.5098 eV

 Pseudo atomic calculation performed for O 2s2 2p4

 Converged in 24 iterations to a total energy of -432.3399 eV

 Pseudo atomic calculation performed for P 3s2 3p3

 Converged in 18 iterations to a total energy of -214.2237 eV

 Pseudo atomic calculation performed for Ge 3d10 4s2 4p2

 Converged in 28 iterations to a total energy of -2533.5726 eV
  Starting k-point:        7 of        8 Time:    441.42 sec  |<-- SPEC

 Pseudo atomic calculation performed for Li 1s2 2s1

 Converged in 18 iterations to a total energy of -200.5098 eV

 Pseudo atomic calculation performed for O 2s2 2p4

 Converged in 24 iterations to a total energy of -432.3399 eV

 Pseudo atomic calculation performed for P 3s2 3p3

 Converged in 18 iterations to a total energy of -214.2237 eV

 Pseudo atomic calculation performed for Ge 3d10 4s2 4p2

 Converged in 28 iterations to a total energy of -2533.5726 eV
  Starting k-point:        8 of        8 Time:    515.00 sec  |<-- SPEC

 Pseudo atomic calculation performed for Li 1s2 2s1

 Converged in 18 iterations to a total energy of -200.5098 eV

 Pseudo atomic calculation performed for O 2s2 2p4

 Converged in 24 iterations to a total energy of -432.3399 eV

 Pseudo atomic calculation performed for P 3s2 3p3

 Converged in 18 iterations to a total energy of -214.2237 eV

 Pseudo atomic calculation performed for Ge 3d10 4s2 4p2

 Converged in 28 iterations to a total energy of -2533.5726 eV
  Check-pointing spectral run                                 |<-- SPEC
  Total time to compute matrix elements            587.23 sec |<-- SPEC
  
  + Calculation re-parallelised over 12 processes.                    +
  + Data distributed by G-vector(3-way), k-point(4-way)               +

 ************************** Forces **************************
 *                                                          *
 *               Cartesian components (eV/A)                *
 * -------------------------------------------------------- *
 *                         x            y            z      *
 *                                                          *
 * Li              1      0.00924      0.01081      0.00249 *
 * Li              2      0.00516      0.00826     -0.00201 *
 * O               1      0.06902      0.09532      0.00294 *
 * O               2      0.08731      0.01242     -0.02895 *
 * O               3      0.11458      0.02744      0.09016 *
 * O               4      0.06628      0.07479      0.11917 *
 * O               5      0.08803      0.08186      0.01032 *
 * O               6      0.14398     -0.00673      0.02643 *
 * O               7     -0.09176     -0.11110     -0.01897 *
 * O               8     -0.11289     -0.03415      0.01295 *
 * O               9     -0.08647     -0.01526     -0.13532 *
 * O              10     -0.06461     -0.06256     -0.09861 *
 * O              11     -0.10656     -0.11209      0.01016 *
 * O              12     -0.15591      0.03423     -0.01717 *
 * O              13      0.02143      0.08993     -0.11525 *
 * O              14      0.08742     -0.09093      0.02696 *
 * O              15     -0.04164      0.03371      0.10666 *
 * O              16     -0.00327     -0.05766      0.10750 *
 * O              17     -0.08333      0.14718      0.01156 *
 * O              18      0.11620     -0.02322     -0.10048 *
 * O              19     -0.01648     -0.08993      0.09430 *
 * O              20     -0.07372      0.09256     -0.00356 *
 * O              21      0.04688     -0.03642     -0.10613 *
 * O              22     -0.01474      0.07585     -0.12717 *
 * O              23      0.06412     -0.08634     -0.00504 *
 * O              24     -0.09209      0.03150      0.09057 *
 * P               1      0.00458     -0.06968     -0.01940 *
 * P               2      0.03056      0.01580      0.06210 *
 * P               3      0.01528      0.00270     -0.06528 *
 * P               4     -0.00560     -0.04958     -0.05668 *
 * P               5     -0.01985     -0.07425      0.10129 *
 * P               6     -0.00615      0.06154      0.06212 *
 * Ge              1      0.00173      0.02140      0.01754 *
 * Ge              2      0.04474      0.06335     -0.01890 *
 * Ge              3     -0.03336     -0.02076     -0.01460 *
 * Ge              4     -0.00811     -0.04000     -0.02169 *
 *                                                          *
 ************************************************************

 Pseudo atomic calculation performed for Li 1s2 2s1

 Converged in 18 iterations to a total energy of -200.5098 eV

 Pseudo atomic calculation performed for O 2s2 2p4

 Converged in 24 iterations to a total energy of -432.3399 eV

 Pseudo atomic calculation performed for P 3s2 3p3

 Converged in 18 iterations to a total energy of -214.2237 eV

 Pseudo atomic calculation performed for Ge 3d10 4s2 4p2

 Converged in 28 iterations to a total energy of -2533.5726 eV
Charge spilling parameter for spin component 1 = 0.99%

            Orbital Populations       
     Ion    Atom   Orbital             Charge
  -------------------------------------------
     Li     1      S                    2.000
     Li     1      S                    0.102
     Li     1      Px                   0.031
     Li     1      Py                   0.049
     Li     1      Pz                   0.053
     Li     2      S                    2.000
     Li     2      S                    0.102
     Li     2      Px                   0.031
     Li     2      Py                   0.049
     Li     2      Pz                   0.053
      O     1      S                    1.813
      O     1      Px                   1.809
      O     1      Py                   1.538
      O     1      Pz                   1.850
      O     2      S                    1.815
      O     2      Px                   1.539
      O     2      Py                   1.855
      O     2      Pz                   1.798
      O     3      S                    1.813
      O     3      Px                   1.741
      O     3      Py                   1.838
      O     3      Pz                   1.618
      O     4      S                    1.814
      O     4      Px                   1.807
      O     4      Py                   1.769
      O     4      Pz                   1.618
      O     5      S                    1.812
      O     5      Px                   1.740
      O     5      Py                   1.657
      O     5      Pz                   1.800
      O     6      S                    1.814
      O     6      Px                   1.540
      O     6      Py                   1.805
      O     6      Pz                   1.849
      O     7      S                    1.813
      O     7      Px                   1.810
      O     7      Py                   1.538
      O     7      Pz                   1.850
      O     8      S                    1.813
      O     8      Px                   1.541
      O     8      Py                   1.856
      O     8      Pz                   1.800
      O     9      S                    1.814
      O     9      Px                   1.738
      O     9      Py                   1.837
      O     9      Pz                   1.619
      O    10      S                    1.813
      O    10      Px                   1.809
      O    10      Py                   1.769
      O    10      Pz                   1.618
      O    11      S                    1.814
      O    11      Px                   1.739
      O    11      Py                   1.657
      O    11      Pz                   1.799
      O    12      S                    1.814
      O    12      Px                   1.540
      O    12      Py                   1.804
      O    12      Pz                   1.849
      O    13      S                    1.835
      O    13      Px                   1.786
      O    13      Py                   1.743
      O    13      Pz                   1.628
      O    14      S                    1.835
      O    14      Px                   1.755
      O    14      Py                   1.548
      O    14      Pz                   1.853
      O    15      S                    1.835
      O    15      Px                   1.672
      O    15      Py                   1.845
      O    15      Pz                   1.638
      O    16      S                    1.835
      O    16      Px                   1.785
      O    16      Py                   1.732
      O    16      Pz                   1.638
      O    17      S                    1.835
      O    17      Px                   1.672
      O    17      Py                   1.630
      O    17      Pz                   1.854
      O    18      S                    1.835
      O    18      Px                   1.756
      O    18      Py                   1.774
      O    18      Pz                   1.626
      O    19      S                    1.835
      O    19      Px                   1.785
      O    19      Py                   1.744
      O    19      Pz                   1.627
      O    20      S                    1.835
      O    20      Px                   1.754
      O    20      Py                   1.548
      O    20      Pz                   1.853
      O    21      S                    1.835
      O    21      Px                   1.672
      O    21      Py                   1.845
      O    21      Pz                   1.638
      O    22      S                    1.835
      O    22      Px                   1.784
      O    22      Py                   1.733
      O    22      Pz                   1.638
      O    23      S                    1.836
      O    23      Px                   1.671
      O    23      Py                   1.630
      O    23      Pz                   1.853
      O    24      S                    1.835
      O    24      Px                   1.755
      O    24      Py                   1.774
      O    24      Pz                   1.626
      P     1      S                    0.890
      P     1      Px                   0.577
      P     1      Py                   0.606
      P     1      Pz                   0.617
      P     2      S                    0.891
      P     2      Px                   0.577
      P     2      Py                   0.615
      P     2      Pz                   0.608
      P     3      S                    0.890
      P     3      Px                   0.596
      P     3      Py                   0.596
      P     3      Pz                   0.607
      P     4      S                    0.890
      P     4      Px                   0.576
      P     4      Py                   0.615
      P     4      Pz                   0.608
      P     5      S                    0.890
      P     5      Px                   0.595
      P     5      Py                   0.596
      P     5      Pz                   0.609
      P     6      S                    0.890
      P     6      Px                   0.577
      P     6      Py                   0.605
      P     6      Pz                   0.617
     Ge     1      Dzz                  2.000
     Ge     1      Dzy                  2.000
     Ge     1      Dzx                  2.000
     Ge     1      Dxx-yy               2.000
     Ge     1      Dxy                  2.000
     Ge     1      S                    0.824
     Ge     1      Px                   0.439
     Ge     1      Py                   0.425
     Ge     1      Pz                   0.422
     Ge     1      S                   -0.261
     Ge     2      Dzz                  2.000
     Ge     2      Dzy                  2.000
     Ge     2      Dzx                  2.000
     Ge     2      Dxx-yy               2.000
     Ge     2      Dxy                  2.000
     Ge     2      S                    0.825
     Ge     2      Px                   0.438
     Ge     2      Py                   0.425
     Ge     2      Pz                   0.422
     Ge     2      S                   -0.261
     Ge     3      Dzz                  2.000
     Ge     3      Dzy                  2.000
     Ge     3      Dzx                  2.000
     Ge     3      Dxx-yy               2.000
     Ge     3      Dxy                  2.000
     Ge     3      S                    0.824
     Ge     3      Px                   0.438
     Ge     3      Py                   0.425
     Ge     3      Pz                   0.422
     Ge     3      S                   -0.261
     Ge     4      Dzz                  2.000
     Ge     4      Dzy                  2.000
     Ge     4      Dzx                  2.000
     Ge     4      Dxx-yy               2.000
     Ge     4      Dxy                  2.000
     Ge     4      S                    0.825
     Ge     4      Px                   0.438
     Ge     4      Py                   0.425
     Ge     4      Pz                   0.422
     Ge     4      S                   -0.261
  -------------------------------------------
                           Total:     235.994
  -------------------------------------------

     Atomic Populations (Mulliken)
     -----------------------------
Species          Ion     s       p       d       f      Total   Charge (e)
==========================================================================
  Li              1     2.102   0.133   0.000   0.000   2.234     0.766
  Li              2     2.102   0.133   0.000   0.000   2.235     0.765
  O               1     1.813   5.197   0.000   0.000   7.010    -1.010
  O               2     1.815   5.192   0.000   0.000   7.007    -1.007
  O               3     1.813   5.197   0.000   0.000   7.010    -1.010
  O               4     1.814   5.194   0.000   0.000   7.008    -1.008
  O               5     1.812   5.198   0.000   0.000   7.010    -1.010
  O               6     1.814   5.194   0.000   0.000   7.008    -1.008
  O               7     1.813   5.197   0.000   0.000   7.010    -1.010
  O               8     1.813   5.196   0.000   0.000   7.009    -1.009
  O               9     1.814   5.194   0.000   0.000   7.008    -1.008
  O              10     1.813   5.196   0.000   0.000   7.009    -1.009
  O              11     1.814   5.195   0.000   0.000   7.009    -1.009
  O              12     1.814   5.194   0.000   0.000   7.008    -1.008
  O              13     1.835   5.156   0.000   0.000   6.991    -0.991
  O              14     1.835   5.156   0.000   0.000   6.991    -0.991
  O              15     1.835   5.155   0.000   0.000   6.990    -0.990
  O              16     1.835   5.155   0.000   0.000   6.990    -0.990
  O              17     1.835   5.156   0.000   0.000   6.991    -0.991
  O              18     1.835   5.156   0.000   0.000   6.991    -0.991
  O              19     1.835   5.156   0.000   0.000   6.991    -0.991
  O              20     1.835   5.155   0.000   0.000   6.990    -0.990
  O              21     1.835   5.155   0.000   0.000   6.990    -0.990
  O              22     1.835   5.155   0.000   0.000   6.991    -0.991
  O              23     1.836   5.154   0.000   0.000   6.990    -0.990
  O              24     1.835   5.155   0.000   0.000   6.990    -0.990
  P               1     0.890   1.799   0.000   0.000   2.689     2.311
  P               2     0.891   1.800   0.000   0.000   2.691     2.309
  P               3     0.890   1.799   0.000   0.000   2.688     2.312
  P               4     0.890   1.799   0.000   0.000   2.689     2.311
  P               5     0.890   1.799   0.000   0.000   2.689     2.311
  P               6     0.890   1.799   0.000   0.000   2.689     2.311
  Ge              1     0.563   1.286  10.000   0.000  11.849     2.151
  Ge              2     0.563   1.286  10.000   0.000  11.849     2.151
  Ge              3     0.563   1.286  10.000   0.000  11.848     2.152
  Ge              4     0.564   1.286  10.000   0.000  11.850     2.150
==========================================================================

                 Bond                   Population      Length (A)
======================================================================
              O 7  -- P 6                    0.66        1.53160
              O 5  -- P 5                    0.65        1.53204
              O 9  -- P 5                    0.66        1.53205
              O 4  -- P 4                    0.66        1.53208
              O 3  -- P 3                    0.66        1.53213
              O 10 -- P 2                    0.66        1.53246
              O 11 -- P 3                    0.65        1.53254
              O 1  -- P 1                    0.65        1.53267
              O 12 -- P 1                    0.65        1.53275
              O 8  -- P 4                    0.66        1.53303
              O 6  -- P 6                    0.65        1.53314
              O 2  -- P 2                    0.65        1.53419
              O 17 -- P 3                    0.63        1.55064
              O 13 -- P 6                    0.63        1.55100
              O 14 -- P 4                    0.63        1.55114
              O 19 -- P 1                    0.63        1.55116
              O 22 -- P 4                    0.63        1.55117
              O 21 -- P 3                    0.63        1.55120
              O 18 -- P 1                    0.63        1.55123
              O 24 -- P 6                    0.63        1.55153
              O 20 -- P 2                    0.63        1.55166
              O 16 -- P 2                    0.63        1.55177
              O 23 -- P 5                    0.63        1.55191
              O 15 -- P 5                    0.63        1.55206
              O 5  -- Ge 2                   0.38        1.86325
              O 7  -- Ge 3                   0.38        1.86522
              O 1  -- Ge 1                   0.38        1.86552
              O 3  -- Ge 1                   0.38        1.86555
              O 6  -- Ge 2                   0.38        1.86593
              O 11 -- Ge 4                   0.38        1.86610
              O 8  -- Ge 3                   0.38        1.86650
              O 10 -- Ge 4                   0.38        1.86730
              O 9  -- Ge 3                   0.38        1.86730
              O 2  -- Ge 1                   0.38        1.86791
              O 4  -- Ge 2                   0.38        1.86816
              O 12 -- Ge 4                   0.38        1.86820
              O 14 -- Ge 1                   0.31        1.90651
              O 22 -- Ge 4                   0.31        1.90731
              O 20 -- Ge 3                   0.31        1.90741
              O 19 -- Ge 3                   0.31        1.90755
              O 13 -- Ge 1                   0.31        1.90766
              O 21 -- Ge 3                   0.31        1.90793
              O 17 -- Ge 2                   0.31        1.90836
              O 23 -- Ge 4                   0.31        1.90839
              O 16 -- Ge 2                   0.31        1.90860
              O 15 -- Ge 1                   0.31        1.90916
              O 24 -- Ge 4                   0.31        1.90988
              O 18 -- Ge 2                   0.31        1.91019
              Li 1 -- O 13                   0.10        2.22504
              Li 2 -- O 17                   0.10        2.22604
              Li 1 -- O 14                   0.10        2.23237
              Li 1 -- O 15                   0.10        2.23330
              Li 1 -- O 20                   0.10        2.23337
              Li 2 -- O 18                   0.10        2.23455
              Li 2 -- O 22                   0.10        2.23552
              Li 2 -- O 16                   0.10        2.23591
              Li 2 -- O 24                   0.10        2.23964
              Li 2 -- O 23                   0.10        2.23966
              Li 1 -- O 19                   0.10        2.24222
              Li 1 -- O 21                   0.10        2.24338
              O 3  -- O 17                  -0.14        2.42593
              O 2  -- O 16                  -0.14        2.42658
              O 6  -- O 13                  -0.14        2.42659
              O 11 -- O 21                  -0.14        2.42696
              O 8  -- O 22                  -0.14        2.42823
              O 10 -- O 20                  -0.14        2.42826
              O 9  -- O 23                  -0.14        2.42838
              O 4  -- O 14                  -0.14        2.42892
              O 12 -- O 19                  -0.14        2.42904
              O 7  -- O 24                  -0.14        2.42914
              O 5  -- O 15                  -0.14        2.42982
              O 1  -- O 18                  -0.14        2.43326
              O 14 -- O 15                  -0.09        2.51518
              O 22 -- O 23                  -0.09        2.51567
              O 19 -- O 20                  -0.09        2.51687
              O 16 -- O 17                  -0.09        2.51702
              O 13 -- O 14                  -0.09        2.51892
              O 17 -- O 18                  -0.09        2.51938
              O 20 -- O 21                  -0.09        2.51943
              O 19 -- O 21                  -0.09        2.52075
              O 23 -- O 24                  -0.09        2.52151
              O 22 -- O 24                  -0.09        2.52274
              O 13 -- O 15                  -0.09        2.52297
              O 16 -- O 18                  -0.09        2.52384
              O 14 -- O 22                  -0.13        2.52747
              O 17 -- O 21                  -0.13        2.52763
              O 15 -- O 23                  -0.13        2.52969
              O 18 -- O 19                  -0.13        2.53060
              O 13 -- O 24                  -0.13        2.53112
              O 16 -- O 20                  -0.13        2.53151
              O 12 -- O 18                  -0.11        2.56354
              O 9  -- O 15                  -0.11        2.56655
              O 1  -- O 19                  -0.11        2.56693
              O 6  -- O 24                  -0.11        2.56900
              O 4  -- O 22                  -0.11        2.56944
              O 8  -- O 14                  -0.11        2.56959
              O 2  -- O 20                  -0.11        2.56979
              O 7  -- O 13                  -0.11        2.56981
              O 11 -- O 17                  -0.11        2.57015
              O 5  -- O 23                  -0.11        2.57129
              O 10 -- O 16                  -0.11        2.57137
              O 3  -- O 11                  -0.11        2.57210
              O 6  -- O 7                   -0.11        2.57305
              O 3  -- O 21                  -0.11        2.57379
              O 5  -- O 9                   -0.11        2.57461
              O 4  -- O 8                   -0.11        2.57505
              O 1  -- O 12                  -0.11        2.57669
              O 2  -- O 10                  -0.11        2.57764
              O 9  -- O 21                  -0.07        2.63372
              O 12 -- O 24                  -0.07        2.63939
              O 7  -- O 19                  -0.07        2.64094
              O 4  -- O 16                  -0.07        2.64101
              O 2  -- O 14                  -0.07        2.64181
              O 11 -- O 23                  -0.07        2.64281
              O 1  -- O 13                  -0.07        2.64347
              O 10 -- O 22                  -0.07        2.64430
              O 6  -- O 18                  -0.07        2.64600
              O 8  -- O 20                  -0.07        2.64615
              O 5  -- O 17                  -0.07        2.64659
              O 3  -- O 15                  -0.07        2.64958
              O 2  -- O 13                  -0.06        2.72355
              O 3  -- O 14                  -0.06        2.72711
              O 6  -- O 16                  -0.06        2.72713
              O 4  -- O 17                  -0.06        2.72881
              O 11 -- O 24                  -0.06        2.73128
              O 12 -- O 22                  -0.06        2.73155
              O 9  -- O 20                  -0.06        2.73157
              O 5  -- O 18                  -0.06        2.73247
              O 8  -- O 19                  -0.06        2.73337
              O 1  -- O 15                  -0.06        2.73460
              O 7  -- O 21                  -0.06        2.73509
              O 10 -- O 23                  -0.06        2.73860
              O 7  -- O 8                   -0.06        2.74722
              O 4  -- O 5                   -0.06        2.75375
              O 10 -- O 11                  -0.06        2.75493
              O 2  -- O 3                   -0.06        2.75549
              O 5  -- O 6                   -0.06        2.75552
              O 1  -- O 3                   -0.06        2.75581
              O 10 -- O 12                  -0.06        2.75673
              O 1  -- O 2                   -0.06        2.75742
              O 7  -- O 9                   -0.06        2.75827
              O 4  -- O 6                   -0.06        2.75953
              O 11 -- O 12                  -0.06        2.76066
              O 8  -- O 9                   -0.06        2.76225
              Li 1 -- Ge 1                  -0.66        2.92547
              Li 2 -- Ge 2                  -0.66        2.92876
              Li 2 -- Ge 4                  -0.65        2.93611
              Li 1 -- Ge 3                  -0.65        2.93767
              O 2  -- O 8                   -0.01        2.95912
              O 1  -- O 7                   -0.01        2.95921
              O 5  -- O 11                  -0.01        2.96381
              O 4  -- O 10                  -0.01        2.96437
              O 6  -- O 12                  -0.01        2.96645
              O 3  -- O 9                   -0.01        2.96697
======================================================================


Writing analysis data to ml_dos.castep_bin

Writing model to ml_dos.check
 
 A BibTeX formatted list of references used in this run has been written to 
 ml_dos.bib
 
Initialisation time =     14.45 s
Calculation time    =   1253.65 s
Finalisation time   =      4.01 s
Total time          =   1272.11 s
Peak Memory Use     = 2945200 kB
 
Overall parallel efficiency rating: Good (70%)
 
Data was distributed by:-
G-vector (3-way); efficiency rating: Good (71%)
k-point (4-way); efficiency rating: Excellent (98%)
