 +-------------------------------------------------+
 |                                                 |
 |      CCC   AA    SSS  TTTTT  EEEEE  PPPP        |
 |     C     A  A  S       T    E      P   P       |
 |     C     AAAA   SS     T    EEE    PPPP        |
 |     C     A  A     S    T    E      P           |
 |      CCC  A  A  SSS     T    EEEEE  P           |
 |                                                 |
 +-------------------------------------------------+
 |                                                 |
 | Welcome to Academic Release CASTEP version 25.12|
 | Ab Initio Total Energy Program                  |
 |                                                 |
 | Authors:                                        |
 | M. Segall, M. Probert, C. Pickard, P. Hasnip,   |
 | S. Clark, K. Refson, J. R. Yates,               |
 | A. Bartok-Partay, M. Payne                      |
 |                                                 |
 | Contributors:                                   |
 | P. Lindan, P. Haynes, J. White, V. Milman,      |
 | N. Govind, M. Gibson, P. Tulip, V. Cocula,      |
 | B. Montanari, D. Quigley, M. Glover,            |
 | L. Bernasconi, A. Perlov, M. Plummer,           |
 | E. McNellis, J. Meyer, J. Gale, D. Jochym       |
 | J. Aarons, B. Walker, R. Gillen, D. Jones       |
 | T. Green, I. J. Bush, C. J. Armstrong,          |
 | E. J. Higgins, E. L. Brown, M. S. McFly,        |
 | J. Wilkins, B-C. Shih, P. J. P. Byrne,          |
 | R. J. Maurer, J. C. Womack, J. Dziedzic,        |
 | L. LeBlanc, T. K. Stenczel, J. Kermode,         |
 | S. Sturniolo, B. Shi, B. Durham, M. Evans,      |
 | M. J. Smith, A. Tamerus, Z. Hawkhead,           |
 | V. Ravindran, T. Hollins, S. A. Joyce,          |
 | R. T. Strong, A. M. Reilly, S. J. Donaldson,    |
 | J. C. A. Prentice                               |
 |                                                 |
 | Copyright (c) 2000 - 2024                       |
 |                                                 |
 |     Distributed under license from Cambridge    |
 |     Enterprise for academic use only.           |
 |                                                 |
 | Please cite                                     |
 |                                                 |
 |     "First principles methods using CASTEP"     |
 |                                                 |
 |         Zeitschrift fuer Kristallographie       |
 |           220(5-6) pp. 567-570 (2005)           |
 |                                                 |
 | S. J. Clark, M. D. Segall, C. J. Pickard,       |
 | P. J. Hasnip, M. J. Probert, K. Refson,         |
 | M. C. Payne                                     |
 |                                                 |
 |       in all publications arising from          |
 |              your use of CASTEP                 |
 |                                                 |
 +-------------------------------------------------+
 |                                                 |
 |              http://www.castep.org              |
 |                                                 |
 +-------------------------------------------------+



 Compiled for linux_x86_64_gfortran10 on Sun, 13 Jul 2025 14:49:40 -0400
 from code version git version unavailable
 Compiler: GNU Fortran 13.3.0; Optimisation: fast
 Comms   : Open MPI v5.0.3
 MATHLIBS: flexiblas (IMKL) (LAPACK version 3.12.0)
 FFT Lib : fftw3 version fftw-3.3.10-sse2-avx-avx2-avx2_128
 Fundamental constants values: CODATA 2018

 Run started: Thu, 11 Dec 2025 00:37:49 -0500

 Atomic calculation performed for Li: 1s2 2s1

 Converged in 47 iterations to an ae energy of -202.784 eV

   ============================================================                
   | Pseudopotential Report - Date of generation 11-12-2025   |                
   ------------------------------------------------------------                
   | Element: Li Ionic charge:  3.00 Level of theory: PBE     |                
   | Atomic Solver: Koelling-Harmon                           |                
   |                                                          |                
   |               Reference Electronic Structure             |                
   |         Orbital         Occupation         Energy        |                
   |            1s              2.000           -1.906        |                
   |            2s              1.000           -0.106        |                
   |                                                          |                
   |                 Pseudopotential Definition               |                
   |        Beta     l      e      Rc     scheme   norm       |                
   |          1      0   -1.906   1.001     qc      0         |                
   |          2      0   -0.106   1.001     qc      0         |                
   |          3      0    0.250   1.001     qc      0         |                
   |         loc     1    0.000   1.001     pn      0         |                
   |                                                          |                
   | Augmentation charge Rinner = 0.699                       |                
   | No partial core correction                               |                
   ------------------------------------------------------------                
   | "1|1.0|14|16|18|10U:20(qc=7)"                            |                
   ------------------------------------------------------------                
   |      Author: Chris J. Pickard, Cambridge University      |                
   ============================================================                

 Atomic calculation performed for Al: 1s2 2s2 2p6 3s2 3p1

 Converged in 54 iterations to an ae energy of -6603.783 eV

   ============================================================                
   | Pseudopotential Report - Date of generation 11-12-2025   |                
   ------------------------------------------------------------                
   | Element: Al Ionic charge:  3.00 Level of theory: PBE     |                
   | Atomic Solver: Koelling-Harmon                           |                
   |                                                          |                
   |               Reference Electronic Structure             |                
   |         Orbital         Occupation         Energy        |                
   |            3s              2.000           -0.285        |                
   |            3p              1.000           -0.100        |                
   |                                                          |                
   |                 Pseudopotential Definition               |                
   |        Beta     l      e      Rc     scheme   norm       |                
   |          1      0   -0.285   2.192     qc      0         |                
   |          2      0    0.250   2.192     qc      0         |                
   |          3      1   -0.100   2.192     qc      0         |                
   |          4      1    0.250   2.192     qc      0         |                
   |          5      2    0.000   2.000     qc      0         |                
   |          6      2    0.250   2.000     qc      0         |                
   |         loc     3    0.000   2.192     pn      0         |                
   |                                                          |                
   | Augmentation charge Rinner = 1.398                       |                
   | Partial core correction Rc = 1.398                       |                
   ------------------------------------------------------------                
   | "3|2.2|2.2|1.4|4|5|5|30:31:32U2U2"                       |                
   ------------------------------------------------------------                
   |      Author: Chris J. Pickard, Cambridge University      |                
   ============================================================                

 Atomic calculation performed for Cl: 1s2 2s2 2p6 3s2 3p5

 Converged in 58 iterations to an ae energy of -12556.233 eV

   ============================================================                
   | Pseudopotential Report - Date of generation 11-12-2025   |                
   ------------------------------------------------------------                
   | Element: Cl Ionic charge:  7.00 Level of theory: PBE     |                
   | Atomic Solver: Koelling-Harmon                           |                
   |                                                          |                
   |               Reference Electronic Structure             |                
   |         Orbital         Occupation         Energy        |                
   |            3s              2.000           -0.760        |                
   |            3p              5.000           -0.316        |                
   |                                                          |                
   |                 Pseudopotential Definition               |                
   |        Beta     l      e      Rc     scheme   norm       |                
   |          1      0   -0.760   1.807     qc      0         |                
   |          2      0    0.250   1.807     qc      0         |                
   |          3      1   -0.316   1.807     qc      0         |                
   |          4      1    0.250   1.807     qc      0         |                
   |          5      2    0.000   1.807     qc      0         |                
   |          6      2    0.250   1.807     qc      0         |                
   |         loc     3    0.000   1.807     pn      0         |                
   |                                                          |                
   | Augmentation charge Rinner = 1.263                       |                
   | Partial core correction Rc = 1.263                       |                
   ------------------------------------------------------------                
   | "3|1.8|5|6|7|30:31:32"                                   |                
   ------------------------------------------------------------                
   |      Author: Chris J. Pickard, Cambridge University      |                
   ============================================================                

 Pseudo atomic calculation performed for Li 1s2 2s1

 Converged in 18 iterations to a total energy of -200.4991 eV

 Pseudo atomic calculation performed for Al 3s2 3p1

 Converged in 15 iterations to a total energy of -107.1306 eV

 Pseudo atomic calculation performed for Cl 3s2 3p5

 Converged in 20 iterations to a total energy of -420.3645 eV
 Calculation parallelised over 20 processes.
 Data is distributed by G-vector(5-way) and k-point(4-way)

 ************************************ Title ************************************
 

 ***************************** General Parameters ******************************
  
 output verbosity                               : normal  (1)
 write checkpoint data to                       : ml_dos.check
 type of calculation                            : Electronic Spectroscopy
 stress calculation                             : off
 density difference calculation                 : off
 electron localisation func (ELF) calculation   : off
 Hirshfeld analysis                             : off
 polarisation (Berry phase) analysis            : off
 molecular orbital projected DOS                : off
 deltaSCF calculation                           : off
 unlimited duration calculation
 timing information                             : on
 memory usage estimate                          : on
 write extra output files                       : on
 write final potential to formatted file        : off
 write final density to formatted file          : off
 write BibTeX reference list                    : on
 write OTFG pseudopotential files               : on
 write electrostatic potential file             : on
 write bands file                               : on
 checkpoint writing                             : both castep_bin and check files
  
 output         length unit                     : A
 output           mass unit                     : amu
 output           time unit                     : ps
 output         charge unit                     : e
 output           spin unit                     : hbar/2
 output         energy unit                     : eV
 output          force unit                     : eV/A
 output       velocity unit                     : A/ps
 output       pressure unit                     : GPa
 output     inv_length unit                     : 1/A
 output      frequency unit                     : cm-1
 output force constant unit                     : eV/A**2
 output         volume unit                     : A**3
 output   IR intensity unit                     : (D/A)**2/amu
 output         dipole unit                     : D
 output         efield unit                     : eV/A/e
 output        entropy unit                     : J/mol/K
 output    efield chi2 unit                     : pm/V
  
 wavefunctions paging                           : none
 random number generator seed                   :    3749796
 data distribution                              : optimal for this architecture
 optimization strategy                          : balance speed and memory

 *********************** Exchange-Correlation Parameters ***********************
  
 using functional                               : Perdew Burke Ernzerhof
 relativistic treatment                         : Koelling-Harmon
 DFT+D: Semi-empirical dispersion correction    : off

 ************************* Pseudopotential Parameters **************************
  
 pseudopotential representation                 : reciprocal space
 <beta|phi> representation                      : reciprocal space
 spin-orbit coupling                            : off

 **************************** Basis Set Parameters *****************************
  
 plane wave basis set cut-off                   :   700.0000   eV
 size of standard grid                          :     2.0000
 size of   fine   gmax                          :    27.1093   1/A
 finite basis set correction                    : none

 **************************** Electronic Parameters ****************************
  
 number of  electrons                           :  136.0    
 net charge of system                           :  0.000    
 treating system as non-spin-polarized
 number of bands                                :         82

 ********************* Electronic Minimization Parameters **********************
  
 Method: Treating system as metallic with conventional treatment of electrons,
         and number of  SD  steps               :          1
         and number of  CG  steps               :          4
  
 total energy / atom convergence tol.           : 0.1000E-05   eV
 max force / atom convergence tol.              : ignored
 convergence tolerance window                   :          3   cycles
 max. number of SCF cycles                      :        100
 number of fixed-spin iterations                :         10
 smearing scheme                                : Gaussian
 smearing width                                 : 0.2000       eV
 Fermi energy convergence tolerance             : 0.2721E-13   eV
 periodic dipole correction                     : NONE

 *********************** Population Analysis Parameters ************************
  
 Population analysis with cutoff                :  3.000       A
 Population analysis output                     : summary and pdos components
 Partial DOS weights calculated

 ********************* Electronic Spectroscopy Parameters **********************
  
 electronic spectroscopy with theory level      : DFT       
 spectroscopy calculation                       : density of states
 max. number of iterations                      :         60
 max. steps per iteration                       :          5
 number of bands / k-point                      :        128
 band convergence tolerance                     : 0.1000E-05   eV
 write orbitals file                            : off

 *******************************************************************************
  

                           -------------------------------
                                      Unit Cell
                           -------------------------------
        Real Lattice(A)                      Reciprocal Lattice(1/A)
     6.9616860     0.0000000     0.0000000        0.902537878   0.000000000   0.051930156
     0.0000000     6.6653710     0.0000000        0.000000000   0.942661002  -0.000000220
    -0.7400510     0.0000030    12.8619690        0.000000000   0.000000000   0.488508821

                       Lattice parameters(A)       Cell Angles
                    a =      6.961686          alpha =   89.999987
                    b =      6.665371          beta  =   93.293049
                    c =     12.883242          gamma =   90.000000

                       Current cell volume =           596.823915       A**3
                                   density =             1.177790   AMU/A**3
                                           =             1.955767     g/cm^3

                           -------------------------------
                                     Cell Contents
                           -------------------------------
                         Total number of ions in cell =   24
                      Total number of species in cell =    3
                        Max number of any one species =   16

            xxxxxxxxxxxxxxxxxxxxxxxxxxxxxxxxxxxxxxxxxxxxxxxxxxxxxxxxxxxx
            x  Element    Atom        Fractional coordinates of atoms  x
            x            Number           u          v          w      x
            x----------------------------------------------------------x
            x  Li           1         0.148843   0.523806   0.866509   x 
            x  Li           2         0.851155   0.023804   0.633493   x 
            x  Li           3         0.851159   0.476193   0.133490   x 
            x  Li           4         0.148842   0.976190   0.366509   x 
            x  Al           1         0.705453   0.162404   0.396187   x 
            x  Al           2         0.294543   0.662404   0.103816   x 
            x  Al           3         0.294547   0.837593   0.603820   x 
            x  Al           4         0.705451   0.337595   0.896186   x 
            x  Cl           1         0.692956   0.311607   0.542009   x 
            x  Cl           2         0.307045   0.811610   0.957993   x 
            x  Cl           3         0.307039   0.688400   0.457992   x 
            x  Cl           4         0.692959   0.188396   0.042008   x 
            x  Cl           5         0.812735   0.865598   0.432012   x 
            x  Cl           6         0.187263   0.365594   0.067988   x 
            x  Cl           7         0.187261   0.134399   0.567984   x 
            x  Cl           8         0.812735   0.634402   0.932013   x 
            x  Cl           9         0.927435   0.293402   0.306841   x 
            x  Cl          10         0.072565   0.793405   0.193157   x 
            x  Cl          11         0.072559   0.706598   0.693153   x 
            x  Cl          12         0.927438   0.206594   0.806842   x 
            x  Cl          13         0.435996   0.163134   0.309584   x 
            x  Cl          14         0.564008   0.663134   0.190414   x 
            x  Cl          15         0.564020   0.836871   0.690414   x 
            x  Cl          16         0.435991   0.336867   0.809585   x 
            xxxxxxxxxxxxxxxxxxxxxxxxxxxxxxxxxxxxxxxxxxxxxxxxxxxxxxxxxxxx


                         No user defined ionic velocities

                           -------------------------------
                                   Details of Species
                           -------------------------------

                               Mass of species in AMU
                                    Li    6.9410000
                                    Al   26.9815400
                                    Cl   35.4527000

                          Electric Quadrupole Moment (Barn)
                                    Li   -0.0401000 Isotope   7
                                    Al    0.1466000 Isotope  27
                                    Cl   -0.0816500 Isotope  35

                          Files used for pseudopotentials:
                                    Li 1|1.0|14|16|18|10U:20(qc=7)
                                    Al 3|2.2|2.2|1.4|4|5|5|30:31:32U2U2
                                    Cl 3|1.8|5|6|7|30:31:32

                           -------------------------------
                              k-Points For BZ Sampling
                           -------------------------------
                       MP grid size for SCF calculation is  8  8  4
                            with an offset of   0.000  0.000  0.000
                       Number of kpoints used =           128

                           -------------------------------
                               Symmetry and Constraints
                           -------------------------------

                      Maximum deviation from symmetry =  0.00000         ANG

                      Number of symmetry operations   =           1
                      Number of ionic constraints     =           3
                      Point group of crystal =     1: C1, 1, 1
                      Space group of crystal =    14: P2_1/c, -P 2ybc

             Set iprint > 1 for details on symmetry rotations/translations

                         Centre of mass is constrained
             Set iprint > 2 for details of linear ionic constraints

                         Number of cell constraints= 0
                         Cell constraints are:  1 2 3 4 5 6

                         External pressure/stress (GPa)
                          0.00000   0.00000   0.00000
                                    0.00000   0.00000
                                              0.00000
 
+---------------- MEMORY AND SCRATCH DISK ESTIMATES PER PROCESS --------------+
|                                                     Memory          Disk    |
| Baseline code, static data and system overhead      813.0 MB         0.0 MB |
| BLAS internal memory storage                          0.0 MB         0.0 MB |
| Model and support data                              760.6 MB         0.0 MB |
| Electronic energy minimisation requirements        1047.3 MB         0.0 MB |
| Force calculation requirements                       20.0 MB         0.0 MB |
|                                               ----------------------------- |
| Approx. total storage required per process         2620.9 MB         0.0 MB |
|                                                                             |
| Requirements will fluctuate during execution and may exceed these estimates |
+-----------------------------------------------------------------------------+
Calculating approximate eigenstates for fixed initial Hamiltonian
Cut-off for approx. calculation is  119.774 eV
Improving approx. states at cut-off of  350.000 eV
Resetting cut-off to  700.000 eV
Improving states further at cut-off of  700.000 eV
Calculating total energy with cut-off of  700.000 eV.
------------------------------------------------------------------------ <-- SCF
SCF loop      Energy           Fermi           Energy gain       Timer   <-- SCF
                               energy          per atom          (sec)   <-- SCF
------------------------------------------------------------------------ <-- SCF
Initial  -8.04680403E+003  3.21291585E+000                       238.70  <-- SCF
      1  -8.04786290E+003  3.21291585E+000   4.41192866E-002     417.00  <-- SCF
      2  -8.04787019E+003  3.21291585E+000   3.03937775E-004     597.81  <-- SCF
      3  -8.04787029E+003  3.21291585E+000   3.97017833E-006     738.40  <-- SCF
      4  -8.04787031E+003  3.21291585E+000   8.21783062E-007     876.98  <-- SCF
      5  -8.04787031E+003  3.21291585E+000   2.54589547E-007    1014.68  <-- SCF
      6  -8.04787032E+003  3.21291585E+000   1.09440616E-007    1151.77  <-- SCF
------------------------------------------------------------------------ <-- SCF
 
Final energy, E             =  -8047.870315370     eV
Final free energy (E-TS)    =  -8047.870315370     eV
(energies not corrected for finite basis set)
 
NB est. 0K energy (E-0.5TS)      =  -8047.870315370     eV
 

Writing analysis data to ml_dos.castep_bin

Writing model to ml_dos.check
 
+---------------- MEMORY AND SCRATCH DISK ESTIMATES PER PROCESS --------------+
|                                                     Memory          Disk    |
|                                               ----------------------------- |
| Approx. total storage required per process         2002.9 MB         0.0 MB |
|                                                                             |
| Requirements will fluctuate during execution and may exceed these estimates |
+-----------------------------------------------------------------------------+
 
  =====================================================================
  +                                                                   +
  +                 Calculation of Spectral Properties                +
  +                                                                   +
  + Calculation re-parallelised over 20 processes.                    +
  + There are 128 k-points distributed across 20 k-point groups.      +
  + Data distributed by G-vector(1-way), k-point(20-way), band(1-way) +
  + Data distributed by k-point(20-way)                               +
  +                                                                   +
  =====================================================================

 Pseudo atomic calculation performed for Li 1s2 2s1

 Converged in 18 iterations to a total energy of -200.4991 eV

 Pseudo atomic calculation performed for Al 3s2 3p1

 Converged in 15 iterations to a total energy of -107.1306 eV

 Pseudo atomic calculation performed for Cl 3s2 3p5

 Converged in 20 iterations to a total energy of -420.3645 eV
  Starting k-point:        1 of        7 Time:      0.00 sec  |<-- SPEC

 Pseudo atomic calculation performed for Li 1s2 2s1

 Converged in 18 iterations to a total energy of -200.4991 eV

 Pseudo atomic calculation performed for Al 3s2 3p1

 Converged in 15 iterations to a total energy of -107.1306 eV

 Pseudo atomic calculation performed for Cl 3s2 3p5

 Converged in 20 iterations to a total energy of -420.3645 eV
  Starting k-point:        2 of        7 Time:     91.21 sec  |<-- SPEC

 Pseudo atomic calculation performed for Li 1s2 2s1

 Converged in 18 iterations to a total energy of -200.4991 eV

 Pseudo atomic calculation performed for Al 3s2 3p1

 Converged in 15 iterations to a total energy of -107.1306 eV

 Pseudo atomic calculation performed for Cl 3s2 3p5

 Converged in 20 iterations to a total energy of -420.3645 eV
  Starting k-point:        3 of        7 Time:    181.93 sec  |<-- SPEC

 Pseudo atomic calculation performed for Li 1s2 2s1

 Converged in 18 iterations to a total energy of -200.4991 eV

 Pseudo atomic calculation performed for Al 3s2 3p1

 Converged in 15 iterations to a total energy of -107.1306 eV

 Pseudo atomic calculation performed for Cl 3s2 3p5

 Converged in 20 iterations to a total energy of -420.3645 eV
  Starting k-point:        4 of        7 Time:    271.87 sec  |<-- SPEC

 Pseudo atomic calculation performed for Li 1s2 2s1

 Converged in 18 iterations to a total energy of -200.4991 eV

 Pseudo atomic calculation performed for Al 3s2 3p1

 Converged in 15 iterations to a total energy of -107.1306 eV

 Pseudo atomic calculation performed for Cl 3s2 3p5

 Converged in 20 iterations to a total energy of -420.3645 eV
  Starting k-point:        5 of        7 Time:    363.63 sec  |<-- SPEC

 Pseudo atomic calculation performed for Li 1s2 2s1

 Converged in 18 iterations to a total energy of -200.4991 eV

 Pseudo atomic calculation performed for Al 3s2 3p1

 Converged in 15 iterations to a total energy of -107.1306 eV

 Pseudo atomic calculation performed for Cl 3s2 3p5

 Converged in 20 iterations to a total energy of -420.3645 eV
  Starting k-point:        6 of        7 Time:    450.48 sec  |<-- SPEC

 Pseudo atomic calculation performed for Li 1s2 2s1

 Converged in 18 iterations to a total energy of -200.4991 eV

 Pseudo atomic calculation performed for Al 3s2 3p1

 Converged in 15 iterations to a total energy of -107.1306 eV

 Pseudo atomic calculation performed for Cl 3s2 3p5

 Converged in 20 iterations to a total energy of -420.3645 eV
  Starting k-point:        7 of        7 Time:    535.13 sec  |<-- SPEC

 Pseudo atomic calculation performed for Li 1s2 2s1

 Converged in 18 iterations to a total energy of -200.4991 eV

 Pseudo atomic calculation performed for Al 3s2 3p1

 Converged in 15 iterations to a total energy of -107.1306 eV

 Pseudo atomic calculation performed for Cl 3s2 3p5

 Converged in 20 iterations to a total energy of -420.3645 eV
  Check-pointing spectral run                                 |<-- SPEC
  Total time to compute matrix elements            619.60 sec |<-- SPEC
  
  + Calculation re-parallelised over 20 processes.                    +
  + Data distributed by G-vector(5-way), k-point(4-way)               +

 ************************** Forces **************************
 *                                                          *
 *               Cartesian components (eV/A)                *
 * -------------------------------------------------------- *
 *                         x            y            z      *
 *                                                          *
 * Li              1      0.00916      0.01449      0.04578 *
 * Li              2     -0.00820      0.01475     -0.04933 *
 * Li              3     -0.00831     -0.01423     -0.04890 *
 * Li              4      0.00887     -0.01465      0.04675 *
 * Al              1     -0.17083      0.13082     -0.11633 *
 * Al              2      0.17214      0.12402      0.11783 *
 * Al              3      0.17368     -0.12596      0.10039 *
 * Al              4     -0.16707     -0.12898     -0.10603 *
 * Cl              1     -0.19381      0.45768      0.33472 *
 * Cl              2      0.18901      0.45035     -0.33519 *
 * Cl              3      0.18741     -0.45473     -0.33325 *
 * Cl              4     -0.18769     -0.45486      0.33677 *
 * Cl              5     -0.06483     -0.64824      0.00421 *
 * Cl              6      0.06618     -0.63845     -0.00489 *
 * Cl              7      0.06761      0.64294     -0.00669 *
 * Cl              8     -0.06813      0.63474      0.00292 *
 * Cl              9      0.23507      0.19483     -0.04497 *
 * Cl             10     -0.22344      0.19538      0.04854 *
 * Cl             11     -0.23902     -0.19991      0.05390 *
 * Cl             12      0.23667     -0.20117     -0.05094 *
 * Cl             13     -0.18871      0.18484     -0.41297 *
 * Cl             14      0.19413      0.15914      0.41616 *
 * Cl             15      0.19421     -0.16662      0.42025 *
 * Cl             16     -0.21413     -0.15620     -0.41872 *
 *                                                          *
 ************************************************************

 Pseudo atomic calculation performed for Li 1s2 2s1

 Converged in 18 iterations to a total energy of -200.4991 eV

 Pseudo atomic calculation performed for Al 3s2 3p1

 Converged in 15 iterations to a total energy of -107.1306 eV

 Pseudo atomic calculation performed for Cl 3s2 3p5

 Converged in 20 iterations to a total energy of -420.3645 eV
Charge spilling parameter for spin component 1 = 0.55%

            Orbital Populations       
     Ion    Atom   Orbital             Charge
  -------------------------------------------
     Li     1      S                    2.000
     Li     1      S                    0.103
     Li     1      Px                   0.062
     Li     1      Py                   0.093
     Li     1      Pz                   0.064
     Li     2      S                    2.000
     Li     2      S                    0.103
     Li     2      Px                   0.062
     Li     2      Py                   0.093
     Li     2      Pz                   0.064
     Li     3      S                    2.000
     Li     3      S                    0.103
     Li     3      Px                   0.062
     Li     3      Py                   0.093
     Li     3      Pz                   0.064
     Li     4      S                    2.000
     Li     4      S                    0.103
     Li     4      Px                   0.062
     Li     4      Py                   0.093
     Li     4      Pz                   0.064
     Al     1      S                    0.719
     Al     1      Px                   0.372
     Al     1      Py                   0.330
     Al     1      Pz                   0.363
     Al     2      S                    0.719
     Al     2      Px                   0.372
     Al     2      Py                   0.330
     Al     2      Pz                   0.363
     Al     3      S                    0.719
     Al     3      Px                   0.373
     Al     3      Py                   0.330
     Al     3      Pz                   0.363
     Al     4      S                    0.719
     Al     4      Px                   0.373
     Al     4      Py                   0.330
     Al     4      Pz                   0.364
     Cl     1      S                    1.946
     Cl     1      Px                   1.920
     Cl     1      Py                   1.883
     Cl     1      Pz                   1.721
     Cl     2      S                    1.946
     Cl     2      Px                   1.920
     Cl     2      Py                   1.883
     Cl     2      Pz                   1.721
     Cl     3      S                    1.946
     Cl     3      Px                   1.920
     Cl     3      Py                   1.883
     Cl     3      Pz                   1.721
     Cl     4      S                    1.946
     Cl     4      Px                   1.920
     Cl     4      Py                   1.883
     Cl     4      Pz                   1.721
     Cl     5      S                    1.947
     Cl     5      Px                   1.865
     Cl     5      Py                   1.763
     Cl     5      Pz                   1.885
     Cl     6      S                    1.947
     Cl     6      Px                   1.865
     Cl     6      Py                   1.763
     Cl     6      Pz                   1.885
     Cl     7      S                    1.947
     Cl     7      Px                   1.865
     Cl     7      Py                   1.763
     Cl     7      Pz                   1.885
     Cl     8      S                    1.947
     Cl     8      Px                   1.865
     Cl     8      Py                   1.763
     Cl     8      Pz                   1.885
     Cl     9      S                    1.941
     Cl     9      Px                   1.792
     Cl     9      Py                   1.890
     Cl     9      Pz                   1.856
     Cl    10      S                    1.941
     Cl    10      Px                   1.792
     Cl    10      Py                   1.890
     Cl    10      Pz                   1.856
     Cl    11      S                    1.941
     Cl    11      Px                   1.792
     Cl    11      Py                   1.890
     Cl    11      Pz                   1.856
     Cl    12      S                    1.941
     Cl    12      Px                   1.792
     Cl    12      Py                   1.890
     Cl    12      Pz                   1.856
     Cl    13      S                    1.939
     Cl    13      Px                   1.741
     Cl    13      Py                   1.927
     Cl    13      Pz                   1.876
     Cl    14      S                    1.939
     Cl    14      Px                   1.741
     Cl    14      Py                   1.927
     Cl    14      Pz                   1.876
     Cl    15      S                    1.939
     Cl    15      Px                   1.741
     Cl    15      Py                   1.927
     Cl    15      Pz                   1.876
     Cl    16      S                    1.939
     Cl    16      Px                   1.741
     Cl    16      Py                   1.927
     Cl    16      Pz                   1.876
  -------------------------------------------
                           Total:     135.999
  -------------------------------------------

     Atomic Populations (Mulliken)
     -----------------------------
Species          Ion     s       p       d       f      Total   Charge (e)
==========================================================================
  Li              1     2.103   0.219   0.000   0.000   2.322     0.678
  Li              2     2.103   0.219   0.000   0.000   2.322     0.678
  Li              3     2.103   0.219   0.000   0.000   2.322     0.678
  Li              4     2.103   0.219   0.000   0.000   2.322     0.678
  Al              1     0.719   1.066   0.000   0.000   1.785     1.215
  Al              2     0.719   1.066   0.000   0.000   1.785     1.215
  Al              3     0.719   1.066   0.000   0.000   1.786     1.214
  Al              4     0.719   1.067   0.000   0.000   1.786     1.214
  Cl              1     1.946   5.524   0.000   0.000   7.470    -0.470
  Cl              2     1.946   5.524   0.000   0.000   7.470    -0.470
  Cl              3     1.946   5.524   0.000   0.000   7.470    -0.470
  Cl              4     1.946   5.524   0.000   0.000   7.470    -0.470
  Cl              5     1.947   5.513   0.000   0.000   7.460    -0.460
  Cl              6     1.947   5.513   0.000   0.000   7.461    -0.461
  Cl              7     1.947   5.513   0.000   0.000   7.460    -0.460
  Cl              8     1.947   5.513   0.000   0.000   7.460    -0.460
  Cl              9     1.941   5.538   0.000   0.000   7.479    -0.479
  Cl             10     1.941   5.538   0.000   0.000   7.479    -0.479
  Cl             11     1.941   5.538   0.000   0.000   7.479    -0.479
  Cl             12     1.941   5.538   0.000   0.000   7.479    -0.479
  Cl             13     1.939   5.544   0.000   0.000   7.483    -0.483
  Cl             14     1.939   5.544   0.000   0.000   7.483    -0.483
  Cl             15     1.939   5.544   0.000   0.000   7.483    -0.483
  Cl             16     1.939   5.544   0.000   0.000   7.483    -0.483
==========================================================================

                 Bond                   Population      Length (A)
======================================================================
              Al 1 -- Cl 13                  0.55        2.12681
              Al 4 -- Cl 16                  0.55        2.12682
              Al 2 -- Cl 14                  0.55        2.12683
              Al 3 -- Cl 15                  0.55        2.12685
              Al 4 -- Cl 4                   0.56        2.13182
              Al 1 -- Cl 1                   0.56        2.13184
              Al 2 -- Cl 2                   0.56        2.13186
              Al 3 -- Cl 3                   0.56        2.13187
              Al 1 -- Cl 5                   0.51        2.15522
              Al 4 -- Cl 8                   0.51        2.15524
              Al 2 -- Cl 6                   0.51        2.15525
              Al 3 -- Cl 7                   0.51        2.15526
              Al 3 -- Cl 11                  0.50        2.16323
              Al 2 -- Cl 10                  0.50        2.16325
              Al 1 -- Cl 9                   0.50        2.16330
              Al 4 -- Cl 12                  0.50        2.16332
              Li 4 -- Cl 3                   0.14        2.47638
              Li 3 -- Cl 4                   0.14        2.47642
              Li 2 -- Cl 1                   0.14        2.47646
              Li 1 -- Cl 2                   0.14        2.47647
              Li 2 -- Cl 15                  0.15        2.50088
              Li 1 -- Cl 16                  0.15        2.50099
              Li 3 -- Cl 14                  0.15        2.50101
              Li 4 -- Cl 13                  0.15        2.50104
              Li 2 -- Cl 12                  0.11        2.57251
              Li 4 -- Cl 10                  0.11        2.57252
              Li 3 -- Cl 9                   0.11        2.57252
              Li 1 -- Cl 11                  0.11        2.57259
              Li 3 -- Cl 6                   0.10        2.63767
              Li 4 -- Cl 5                   0.10        2.63768
              Li 1 -- Cl 8                   0.10        2.63770
              Li 2 -- Cl 7                   0.10        2.63771
              Li 2 -- Cl 11                  0.09        2.70197
              Li 1 -- Cl 12                  0.09        2.70203
              Li 3 -- Cl 10                  0.09        2.70203
              Li 4 -- Cl 9                   0.09        2.70204
              Li 4 -- Cl 7                   0.08        2.80021
              Li 3 -- Cl 8                   0.08        2.80024
              Li 1 -- Cl 6                   0.08        2.80027
              Li 2 -- Cl 5                   0.08        2.80028
======================================================================


Writing analysis data to ml_dos.castep_bin

Writing model to ml_dos.check
 
 A BibTeX formatted list of references used in this run has been written to 
 ml_dos.bib
 
Initialisation time =      9.81 s
Calculation time    =   1831.28 s
Finalisation time   =      6.05 s
Total time          =   1847.14 s
Peak Memory Use     = 3716600 kB
 
Overall parallel efficiency rating: Satisfactory (67%)
 
Data was distributed by:-
G-vector (5-way); efficiency rating: Good (70%)
k-point (4-way); efficiency rating: Excellent (94%)
