 +-------------------------------------------------+
 |                                                 |
 |      CCC   AA    SSS  TTTTT  EEEEE  PPPP        |
 |     C     A  A  S       T    E      P   P       |
 |     C     AAAA   SS     T    EEE    PPPP        |
 |     C     A  A     S    T    E      P           |
 |      CCC  A  A  SSS     T    EEEEE  P           |
 |                                                 |
 +-------------------------------------------------+
 |                                                 |
 | Welcome to Academic Release CASTEP version 25.12|
 | Ab Initio Total Energy Program                  |
 |                                                 |
 | Authors:                                        |
 | M. Segall, M. Probert, C. Pickard, P. Hasnip,   |
 | S. Clark, K. Refson, J. R. Yates,               |
 | A. Bartok-Partay, M. Payne                      |
 |                                                 |
 | Contributors:                                   |
 | P. Lindan, P. Haynes, J. White, V. Milman,      |
 | N. Govind, M. Gibson, P. Tulip, V. Cocula,      |
 | B. Montanari, D. Quigley, M. Glover,            |
 | L. Bernasconi, A. Perlov, M. Plummer,           |
 | E. McNellis, J. Meyer, J. Gale, D. Jochym       |
 | J. Aarons, B. Walker, R. Gillen, D. Jones       |
 | T. Green, I. J. Bush, C. J. Armstrong,          |
 | E. J. Higgins, E. L. Brown, M. S. McFly,        |
 | J. Wilkins, B-C. Shih, P. J. P. Byrne,          |
 | R. J. Maurer, J. C. Womack, J. Dziedzic,        |
 | L. LeBlanc, T. K. Stenczel, J. Kermode,         |
 | S. Sturniolo, B. Shi, B. Durham, M. Evans,      |
 | M. J. Smith, A. Tamerus, Z. Hawkhead,           |
 | V. Ravindran, T. Hollins, S. A. Joyce,          |
 | R. T. Strong, A. M. Reilly, S. J. Donaldson,    |
 | J. C. A. Prentice                               |
 |                                                 |
 | Copyright (c) 2000 - 2024                       |
 |                                                 |
 |     Distributed under license from Cambridge    |
 |     Enterprise for academic use only.           |
 |                                                 |
 | Please cite                                     |
 |                                                 |
 |     "First principles methods using CASTEP"     |
 |                                                 |
 |         Zeitschrift fuer Kristallographie       |
 |           220(5-6) pp. 567-570 (2005)           |
 |                                                 |
 | S. J. Clark, M. D. Segall, C. J. Pickard,       |
 | P. J. Hasnip, M. J. Probert, K. Refson,         |
 | M. C. Payne                                     |
 |                                                 |
 |       in all publications arising from          |
 |              your use of CASTEP                 |
 |                                                 |
 +-------------------------------------------------+
 |                                                 |
 |              http://www.castep.org              |
 |                                                 |
 +-------------------------------------------------+



 Compiled for linux_x86_64_gfortran10 on Sun, 13 Jul 2025 14:49:40 -0400
 from code version git version unavailable
 Compiler: GNU Fortran 13.3.0; Optimisation: fast
 Comms   : Open MPI v5.0.3
 MATHLIBS: flexiblas (IMKL) (LAPACK version 3.12.0)
 FFT Lib : fftw3 version fftw-3.3.10-sse2-avx-avx2-avx2_128
 Fundamental constants values: CODATA 2018

 Run started: Thu, 30 Oct 2025 03:09:49 -0400

 Atomic calculation performed for Li: 1s2 2s1

 Converged in 47 iterations to an ae energy of -202.784 eV

   ============================================================                
   | Pseudopotential Report - Date of generation 30-10-2025   |                
   ------------------------------------------------------------                
   | Element: Li Ionic charge:  3.00 Level of theory: PBE     |                
   | Atomic Solver: Koelling-Harmon                           |                
   |                                                          |                
   |               Reference Electronic Structure             |                
   |         Orbital         Occupation         Energy        |                
   |            1s              2.000           -1.906        |                
   |            2s              1.000           -0.106        |                
   |                                                          |                
   |                 Pseudopotential Definition               |                
   |        Beta     l      e      Rc     scheme   norm       |                
   |          1      0   -1.906   1.001     qc      0         |                
   |          2      0   -0.106   1.001     qc      0         |                
   |          3      0    0.250   1.001     qc      0         |                
   |         loc     1    0.000   1.001     pn      0         |                
   |                                                          |                
   | Augmentation charge Rinner = 0.699                       |                
   | No partial core correction                               |                
   ------------------------------------------------------------                
   | "1|1.0|14|16|18|10U:20(qc=7)"                            |                
   ------------------------------------------------------------                
   |      Author: Chris J. Pickard, Cambridge University      |                
   ============================================================                

 Atomic calculation performed for O: 1s2 2s2 2p4

 Converged in 61 iterations to an ae energy of -2040.902 eV

   ============================================================                
   | Pseudopotential Report - Date of generation 30-10-2025   |                
   ------------------------------------------------------------                
   | Element: O Ionic charge:  6.00 Level of theory: PBE      |                
   | Atomic Solver: Koelling-Harmon                           |                
   |                                                          |                
   |               Reference Electronic Structure             |                
   |         Orbital         Occupation         Energy        |                
   |            2s              2.000           -0.881        |                
   |            2p              4.000           -0.332        |                
   |                                                          |                
   |                 Pseudopotential Definition               |                
   |        Beta     l      e      Rc     scheme   norm       |                
   |          1      0   -0.881   1.100     qc      0         |                
   |          2      0    0.250   1.100     qc      0         |                
   |          3      1   -0.332   1.100     qc      0         |                
   |          4      1    0.250   1.100     qc      0         |                
   |         loc     2    0.000   1.100     pn      0         |                
   |                                                          |                
   | Augmentation charge Rinner = 0.769                       |                
   | Partial core correction Rc = 0.769                       |                
   ------------------------------------------------------------                
   | "2|1.1|17|20|23|20:21(qc=8)"                             |                
   ------------------------------------------------------------                
   |      Author: Chris J. Pickard, Cambridge University      |                
   ============================================================                

 Atomic calculation performed for P: 1s2 2s2 2p6 3s2 3p3

 Converged in 56 iterations to an ae energy of -9303.626 eV

   ============================================================                
   | Pseudopotential Report - Date of generation 30-10-2025   |                
   ------------------------------------------------------------                
   | Element: P Ionic charge:  5.00 Level of theory: PBE      |                
   | Atomic Solver: Koelling-Harmon                           |                
   |                                                          |                
   |               Reference Electronic Structure             |                
   |         Orbital         Occupation         Energy        |                
   |            3s              2.000           -0.513        |                
   |            3p              3.000           -0.202        |                
   |                                                          |                
   |                 Pseudopotential Definition               |                
   |        Beta     l      e      Rc     scheme   norm       |                
   |          1      0   -0.513   1.807     qc      0         |                
   |          2      0    0.250   1.807     qc      0         |                
   |          3      1   -0.202   1.807     qc      0         |                
   |          4      1    0.250   1.807     qc      0         |                
   |          5      2    0.000   1.807     qc      0         |                
   |          6      2    0.250   1.807     qc      0         |                
   |         loc     3    0.000   1.807     pn      0         |                
   |                                                          |                
   | Augmentation charge Rinner = 1.263                       |                
   | Partial core correction Rc = 1.263                       |                
   ------------------------------------------------------------                
   | "3|1.8|4|4|5|30:31:32"                                   |                
   ------------------------------------------------------------                
   |      Author: Chris J. Pickard, Cambridge University      |                
   ============================================================                

 Atomic calculation performed for Zr: 1s2 2s2 2p6 3s2 3p6 3d10 4s2 4p6 4d2 5s2

 Converged in 73 iterations to an ae energy of -97920.943 eV

 Warning: otfg_descreen_psp: negative charge density encountered
   ============================================================                
   | Pseudopotential Report - Date of generation 30-10-2025   |                
   ------------------------------------------------------------                
   | Element: Zr Ionic charge: 12.00 Level of theory: PBE     |                
   | Atomic Solver: Koelling-Harmon                           |                
   |                                                          |                
   |               Reference Electronic Structure             |                
   |         Orbital         Occupation         Energy        |                
   |            4s              2.000           -2.003        |                
   |            4p              6.000           -1.193        |                
   |            5s              2.000           -0.163        |                
   |            4d              2.000           -0.132        |                
   |                                                          |                
   |                 Pseudopotential Definition               |                
   |        Beta     l      e      Rc     scheme   norm       |                
   |          1      0   -2.003   2.105     qc      0         |                
   |          2      0   -0.163   2.105     qc      0         |                
   |          3      0    0.250   2.105     qc      0         |                
   |          4      1   -1.193   2.105     qc      0         |                
   |          5      1    0.250   2.105     qc      0         |                
   |          6      2   -0.132   2.105     qc      0         |                
   |          7      2    0.250   2.105     qc      0         |                
   |         loc     3    0.000   2.105     pn      0         |                
   |                                                          |                
   | Augmentation charge Rinner = 1.471                       |                
   | Partial core correction Rc = 1.471                       |                
   ------------------------------------------------------------                
   | "3|2.1|7|8|9|40U:50:41:42"                               |                
   ------------------------------------------------------------                
   |      Author: Chris J. Pickard, Cambridge University      |                
   ============================================================                

 Pseudo atomic calculation performed for Li 1s2 2s1

 Converged in 18 iterations to a total energy of -200.5098 eV

 Pseudo atomic calculation performed for O 2s2 2p4

 Converged in 24 iterations to a total energy of -432.3399 eV

 Pseudo atomic calculation performed for P 3s2 3p3

 Converged in 18 iterations to a total energy of -214.2237 eV

 Pseudo atomic calculation performed for Zr 4s2 4p6 4d2 5s2

 Converged in 25 iterations to a total energy of -1285.8617 eV
 Calculation parallelised over 18 processes.
 Data is distributed by G-vector(3-way) and k-point(6-way)

 ************************************ Title ************************************
 

 ***************************** General Parameters ******************************
  
 output verbosity                               : normal  (1)
 write checkpoint data to                       : ml_dos.check
 type of calculation                            : Electronic Spectroscopy
 stress calculation                             : off
 density difference calculation                 : off
 electron localisation func (ELF) calculation   : off
 Hirshfeld analysis                             : off
 polarisation (Berry phase) analysis            : off
 molecular orbital projected DOS                : off
 deltaSCF calculation                           : off
 unlimited duration calculation
 timing information                             : on
 memory usage estimate                          : on
 write extra output files                       : on
 write final potential to formatted file        : off
 write final density to formatted file          : off
 write BibTeX reference list                    : on
 write OTFG pseudopotential files               : on
 write electrostatic potential file             : on
 write bands file                               : on
 checkpoint writing                             : both castep_bin and check files
  
 output         length unit                     : A
 output           mass unit                     : amu
 output           time unit                     : ps
 output         charge unit                     : e
 output           spin unit                     : hbar/2
 output         energy unit                     : eV
 output          force unit                     : eV/A
 output       velocity unit                     : A/ps
 output       pressure unit                     : GPa
 output     inv_length unit                     : 1/A
 output      frequency unit                     : cm-1
 output force constant unit                     : eV/A**2
 output         volume unit                     : A**3
 output   IR intensity unit                     : (D/A)**2/amu
 output         dipole unit                     : D
 output         efield unit                     : eV/A/e
 output        entropy unit                     : J/mol/K
 output    efield chi2 unit                     : pm/V
  
 wavefunctions paging                           : none
 random number generator seed                   :   30949604
 data distribution                              : optimal for this architecture
 optimization strategy                          : balance speed and memory

 *********************** Exchange-Correlation Parameters ***********************
  
 using functional                               : Perdew Burke Ernzerhof
 relativistic treatment                         : Koelling-Harmon
 DFT+D: Semi-empirical dispersion correction    : off

 ************************* Pseudopotential Parameters **************************
  
 pseudopotential representation                 : reciprocal space
 <beta|phi> representation                      : reciprocal space
 spin-orbit coupling                            : off

 **************************** Basis Set Parameters *****************************
  
 plane wave basis set cut-off                   :   900.0000   eV
 size of standard grid                          :     2.0000
 size of   fine   gmax                          :    30.7390   1/A
 finite basis set correction                    : none

 **************************** Electronic Parameters ****************************
  
 number of  electrons                           :  456.0    
 net charge of system                           :  0.000    
 treating system as non-spin-polarized
 number of bands                                :        274

 ********************* Electronic Minimization Parameters **********************
  
 Method: Treating system as metallic with density mixing treatment of electrons,
         and number of  SD  steps               :          1
         and number of  CG  steps               :          4
  
 total energy / atom convergence tol.           : 0.1000E-05   eV
 eigen-energy convergence tolerance             : 0.3158E-06   eV
 max force / atom convergence tol.              : ignored
 convergence tolerance window                   :          3   cycles
 max. number of SCF cycles                      :        100
 number of fixed-spin iterations                :         10
 smearing scheme                                : Gaussian
 smearing width                                 : 0.2000       eV
 Fermi energy convergence tolerance             : 0.2721E-13   eV
 periodic dipole correction                     : NONE

 ************************** Density Mixing Parameters **************************
  
 density-mixing scheme                          : Pulay
 max. length of mixing history                  :         20
 charge density mixing amplitude                : 0.2000    
 cut-off energy for mixing                      :  900.0       eV

 *********************** Population Analysis Parameters ************************
  
 Population analysis with cutoff                :  3.000       A
 Population analysis output                     : summary and pdos components
 Partial DOS weights calculated

 ********************* Electronic Spectroscopy Parameters **********************
  
 electronic spectroscopy with theory level      : DFT       
 spectroscopy calculation                       : density of states
 max. number of iterations                      :         60
 max. steps per iteration                       :          5
 number of bands / k-point                      :        357
 band convergence tolerance                     : 0.1000E-05   eV
 write orbitals file                            : off

 *******************************************************************************
  

                           -------------------------------
                                      Unit Cell
                           -------------------------------
        Real Lattice(A)                      Reciprocal Lattice(1/A)
     8.9409860     0.0000000     0.0000000        0.702739643   0.000000308   0.004543489
    -0.0000040     9.1306300     0.0000000        0.000000000   0.688143678   0.000000055
    -0.0814960    -0.0000010    12.6049540        0.000000000   0.000000000   0.498469515

                       Lattice parameters(A)       Cell Angles
                    a =      8.940986          alpha =   90.000004
                    b =      9.130630          beta  =   90.370435
                    c =     12.605217          gamma =   90.000025

                       Current cell volume =          1029.028550       A**3
                                   density =             1.843693   AMU/A**3
                                           =             3.061524     g/cm^3

                           -------------------------------
                                     Cell Contents
                           -------------------------------
                         Total number of ions in cell =   72
                      Total number of species in cell =    4
                        Max number of any one species =   48

            xxxxxxxxxxxxxxxxxxxxxxxxxxxxxxxxxxxxxxxxxxxxxxxxxxxxxxxxxxxx
            x  Element    Atom        Fractional coordinates of atoms  x
            x            Number           u          v          w      x
            x----------------------------------------------------------x
            x  Li           1         0.211812   0.724482   0.176641   x 
            x  Li           2         0.711812   0.775517   0.676640   x 
            x  Li           3         0.788188   0.275516   0.823358   x 
            x  Li           4         0.288189   0.224482   0.323359   x 
            x  O            1         0.850618   0.921667   0.032542   x 
            x  O            2         0.350618   0.578333   0.532541   x 
            x  O            3         0.149381   0.078332   0.967459   x 
            x  O            4         0.649383   0.421668   0.467458   x 
            x  O            5         0.822224   0.750331   0.819173   x 
            x  O            6         0.322223   0.749670   0.319173   x 
            x  O            7         0.177777   0.249670   0.180827   x 
            x  O            8         0.677777   0.250330   0.680826   x 
            x  O            9         0.558914   0.854735   0.943895   x 
            x  O           10         0.058915   0.645265   0.443894   x 
            x  O           11         0.441086   0.145265   0.056106   x 
            x  O           12         0.941086   0.354736   0.556106   x 
            x  O           13         0.926583   0.099518   0.845467   x 
            x  O           14         0.426583   0.400482   0.345467   x 
            x  O           15         0.073418   0.900482   0.154534   x 
            x  O           16         0.573417   0.599518   0.654532   x 
            x  O           17         0.672085   0.979779   0.727283   x 
            x  O           18         0.172086   0.520220   0.227282   x 
            x  O           19         0.327915   0.020221   0.272717   x 
            x  O           20         0.827914   0.479780   0.772718   x 
            x  O           21         0.650032   0.161478   0.921752   x 
            x  O           22         0.150033   0.338522   0.421752   x 
            x  O           23         0.349966   0.838522   0.078248   x 
            x  O           24         0.849968   0.661478   0.578248   x 
            x  O           25         0.821665   0.558324   0.962868   x 
            x  O           26         0.321666   0.941679   0.462867   x 
            x  O           27         0.178335   0.441677   0.037133   x 
            x  O           28         0.678333   0.058320   0.537133   x 
            x  O           29         0.866325   0.717012   0.166855   x 
            x  O           30         0.366326   0.782989   0.666854   x 
            x  O           31         0.133676   0.282988   0.833145   x 
            x  O           32         0.633675   0.217011   0.333146   x 
            x  O           33         0.561267   0.659358   0.086524   x 
            x  O           34         0.061267   0.840643   0.586522   x 
            x  O           35         0.438733   0.340643   0.913477   x 
            x  O           36         0.938733   0.159357   0.413478   x 
            x  O           37         0.944138   0.400504   0.146044   x 
            x  O           38         0.444137   0.099497   0.646044   x 
            x  O           39         0.055862   0.599495   0.853956   x 
            x  O           40         0.555862   0.900503   0.353955   x 
            x  O           41         0.676829   0.479579   0.273585   x 
            x  O           42         0.176829   0.020420   0.773586   x 
            x  O           43         0.323171   0.520421   0.726413   x 
            x  O           44         0.823171   0.979580   0.226414   x 
            x  O           45         0.627804   0.348450   0.065040   x 
            x  O           46         0.127804   0.151552   0.565041   x 
            x  O           47         0.372196   0.651550   0.934960   x 
            x  O           48         0.872196   0.848449   0.434959   x 
            x  P            1         0.884434   0.597638   0.853734   x 
            x  P            2         0.384434   0.902363   0.353734   x 
            x  P            3         0.115566   0.402362   0.146266   x 
            x  P            4         0.615565   0.097637   0.646266   x 
            x  P            5         0.900671   0.879288   0.146123   x 
            x  P            6         0.400670   0.620713   0.646122   x 
            x  P            7         0.099330   0.120712   0.853877   x 
            x  P            8         0.599330   0.379288   0.353877   x 
            x  P            9         0.462942   0.748905   0.010535   x 
            x  P           10         0.962943   0.751095   0.510534   x 
            x  P           11         0.537058   0.251095   0.989465   x 
            x  P           12         0.037058   0.248906   0.489466   x 
            x  Zr           1         0.748368   0.953893   0.889570   x 
            x  Zr           2         0.248368   0.546107   0.389569   x 
            x  Zr           3         0.251632   0.046108   0.110430   x 
            x  Zr           4         0.751632   0.453893   0.610431   x 
            x  Zr           5         0.749361   0.526585   0.120160   x 
            x  Zr           6         0.249362   0.973415   0.620160   x 
            x  Zr           7         0.250639   0.473414   0.879840   x 
            x  Zr           8         0.750638   0.026585   0.379840   x 
            xxxxxxxxxxxxxxxxxxxxxxxxxxxxxxxxxxxxxxxxxxxxxxxxxxxxxxxxxxxx


                         No user defined ionic velocities

                           -------------------------------
                                   Details of Species
                           -------------------------------

                               Mass of species in AMU
                                    Li    6.9410000
                                    O   15.9994000
                                    P   30.9737600
                                    Zr   91.2240000

                          Electric Quadrupole Moment (Barn)
                                    Li   -0.0401000 Isotope   7
                                    O   -0.0255800 Isotope  17
                                    P    1.0000000 No Isotope Defined
                                    Zr   -0.1760000 Isotope  91

                          Files used for pseudopotentials:
                                    Li 1|1.0|14|16|18|10U:20(qc=7)
                                    O 2|1.1|17|20|23|20:21(qc=8)
                                    P 3|1.8|4|4|5|30:31:32
                                    Zr 3|2.1|7|8|9|40U:50:41:42

                           -------------------------------
                              k-Points For BZ Sampling
                           -------------------------------
                       MP grid size for SCF calculation is  4  4  3
                            with an offset of   0.000  0.000  0.000
                       Number of kpoints used =            24

                           -------------------------------
                               Symmetry and Constraints
                           -------------------------------

                      Maximum deviation from symmetry =  0.00000         ANG

                      Number of symmetry operations   =           1
                      Number of ionic constraints     =           3
                      Point group of crystal =     1: C1, 1, 1
                      Space group of crystal =    14: P2_1/c, -P 2ybc

             Set iprint > 1 for details on symmetry rotations/translations

                         Centre of mass is constrained
             Set iprint > 2 for details of linear ionic constraints

                         Number of cell constraints= 0
                         Cell constraints are:  1 2 3 4 5 6

                         External pressure/stress (GPa)
                          0.00000   0.00000   0.00000
                                    0.00000   0.00000
                                              0.00000
 
+---------------- MEMORY AND SCRATCH DISK ESTIMATES PER PROCESS --------------+
|                                                     Memory          Disk    |
| Baseline code, static data and system overhead      814.0 MB         0.0 MB |
| BLAS internal memory storage                          0.0 MB         0.0 MB |
| Model and support data                             2082.9 MB         0.0 MB |
| Electronic energy minimisation requirements        1023.8 MB         0.0 MB |
| Force calculation requirements                       48.9 MB         0.0 MB |
|                                               ----------------------------- |
| Approx. total storage required per process         3920.7 MB         0.0 MB |
|                                                                             |
| Requirements will fluctuate during execution and may exceed these estimates |
+-----------------------------------------------------------------------------+
Calculating approximate eigenstates for fixed initial Hamiltonian
Cut-off for approx. calculation is   89.988 eV
Improving approx. states at cut-off of  450.000 eV
Resetting cut-off to  900.000 eV
Calculating total energy with cut-off of  900.000 eV.
------------------------------------------------------------------------ <-- SCF
SCF loop      Energy           Fermi           Energy gain       Timer   <-- SCF
                               energy          per atom          (sec)   <-- SCF
------------------------------------------------------------------------ <-- SCF
Initial  -3.39792267E+004  0.00000000E+000                       322.44  <-- SCF
      1  -3.50239249E+004 -3.56425230E-002   1.45096976E+001     718.07  <-- SCF
      2  -3.50257248E+004 -3.90171975E-002   2.49985607E-002    1160.52  <-- SCF
      3  -3.49940330E+004  9.32817942E-001  -4.40163583E-001    1297.43  <-- SCF
      4  -3.49807250E+004  2.05004833E+000  -1.84833620E-001    1682.03  <-- SCF
      5  -3.49813077E+004  1.99884047E+000   8.09313418E-003    1928.64  <-- SCF
      6  -3.49809916E+004  2.25367139E+000  -4.39095419E-003    2034.89  <-- SCF
      7  -3.49810932E+004  2.32202968E+000   1.41100173E-003    2184.39  <-- SCF
      8  -3.49810928E+004  2.28715758E+000  -5.06162557E-006    2309.31  <-- SCF
      9  -3.49811099E+004  2.30774550E+000   2.38156069E-004    2430.87  <-- SCF
     10  -3.49811114E+004  2.30401770E+000   2.07899753E-005    2563.06  <-- SCF
     11  -3.49811128E+004  2.30144709E+000   1.94686342E-005    2687.51  <-- SCF
     12  -3.49811123E+004  2.30978646E+000  -7.00351060E-006    2802.12  <-- SCF
     13  -3.49811124E+004  2.31000197E+000   9.83987438E-007    2878.84  <-- SCF
     14  -3.49811124E+004  2.31041072E+000  -3.09022593E-007    2952.38  <-- SCF
------------------------------------------------------------------------ <-- SCF
 
Final energy, E             =  -34981.11237790     eV
Final free energy (E-TS)    =  -34981.11237790     eV
(energies not corrected for finite basis set)
 
NB est. 0K energy (E-0.5TS)      =  -34981.11237790     eV
 

Writing analysis data to ml_dos.castep_bin

Writing model to ml_dos.check
 
+---------------- MEMORY AND SCRATCH DISK ESTIMATES PER PROCESS --------------+
|                                                     Memory          Disk    |
|                                               ----------------------------- |
| Approx. total storage required per process         3194.6 MB         0.0 MB |
|                                                                             |
| Requirements will fluctuate during execution and may exceed these estimates |
+-----------------------------------------------------------------------------+
 
  =====================================================================
  +                                                                   +
  +                 Calculation of Spectral Properties                +
  +                                                                   +
  + Calculation re-parallelised over 16 processes.                    +
  + There are 24 k-points distributed across 8 k-point groups.        +
  + Data distributed by G-vector(2-way), k-point(8-way), band(1-way)  +
  + Data distributed by G-vector(2-way), k-point(8-way)               +
  +                                                                   +
  =====================================================================

 Pseudo atomic calculation performed for Li 1s2 2s1

 Converged in 18 iterations to a total energy of -200.5098 eV

 Pseudo atomic calculation performed for O 2s2 2p4

 Converged in 24 iterations to a total energy of -432.3399 eV

 Pseudo atomic calculation performed for P 3s2 3p3

 Converged in 18 iterations to a total energy of -214.2237 eV

 Pseudo atomic calculation performed for Zr 4s2 4p6 4d2 5s2

 Converged in 25 iterations to a total energy of -1285.8617 eV
  Starting k-point:        1 of        3 Time:      0.00 sec  |<-- SPEC

 Pseudo atomic calculation performed for Li 1s2 2s1

 Converged in 18 iterations to a total energy of -200.5098 eV

 Pseudo atomic calculation performed for O 2s2 2p4

 Converged in 24 iterations to a total energy of -432.3399 eV

 Pseudo atomic calculation performed for P 3s2 3p3

 Converged in 18 iterations to a total energy of -214.2237 eV

 Pseudo atomic calculation performed for Zr 4s2 4p6 4d2 5s2

 Converged in 25 iterations to a total energy of -1285.8617 eV
  Starting k-point:        2 of        3 Time:   1196.99 sec  |<-- SPEC

 Pseudo atomic calculation performed for Li 1s2 2s1

 Converged in 18 iterations to a total energy of -200.5098 eV

 Pseudo atomic calculation performed for O 2s2 2p4

 Converged in 24 iterations to a total energy of -432.3399 eV

 Pseudo atomic calculation performed for P 3s2 3p3

 Converged in 18 iterations to a total energy of -214.2237 eV

 Pseudo atomic calculation performed for Zr 4s2 4p6 4d2 5s2

 Converged in 25 iterations to a total energy of -1285.8617 eV
  Starting k-point:        3 of        3 Time:   1971.96 sec  |<-- SPEC

 Pseudo atomic calculation performed for Li 1s2 2s1

 Converged in 18 iterations to a total energy of -200.5098 eV

 Pseudo atomic calculation performed for O 2s2 2p4

 Converged in 24 iterations to a total energy of -432.3399 eV

 Pseudo atomic calculation performed for P 3s2 3p3

 Converged in 18 iterations to a total energy of -214.2237 eV

 Pseudo atomic calculation performed for Zr 4s2 4p6 4d2 5s2

 Converged in 25 iterations to a total energy of -1285.8617 eV
  Check-pointing spectral run                                 |<-- SPEC
  Total time to compute matrix elements           2715.60 sec |<-- SPEC
  
  + Calculation re-parallelised over 18 processes.                    +
  + Data distributed by G-vector(3-way), k-point(6-way)               +

 ************************** Forces **************************
 *                                                          *
 *               Cartesian components (eV/A)                *
 * -------------------------------------------------------- *
 *                         x            y            z      *
 *                                                          *
 * Li              1      0.01667      0.00918      0.06644 *
 * Li              2      0.01701     -0.00817      0.07335 *
 * Li              3     -0.01666     -0.00910     -0.06642 *
 * Li              4     -0.01702      0.00821     -0.07333 *
 * O               1     -0.25205      0.13510     -0.64451 *
 * O               2     -0.25177     -0.13486     -0.64397 *
 * O               3      0.25197     -0.13482      0.64401 *
 * O               4      0.25166      0.13489      0.64388 *
 * O               5     -0.12990      0.54200      0.02979 *
 * O               6     -0.12985     -0.54195      0.02972 *
 * O               7      0.12996     -0.54212     -0.02978 *
 * O               8      0.12980      0.54189     -0.02961 *
 * O               9      0.37626      0.30412     -0.26232 *
 * O              10      0.37593     -0.30389     -0.26231 *
 * O              11     -0.37595     -0.30383      0.26197 *
 * O              12     -0.37587      0.30385      0.26227 *
 * O              13     -0.32115     -0.13648      0.02694 *
 * O              14     -0.32124      0.13640      0.02662 *
 * O              15      0.32098      0.13641     -0.02701 *
 * O              16      0.32127     -0.13633     -0.02666 *
 * O              17      0.16736     -0.16125      0.31185 *
 * O              18      0.16764      0.16163      0.31234 *
 * O              19     -0.16749      0.16138     -0.31178 *
 * O              20     -0.16769     -0.16171     -0.31231 *
 * O              21      0.34576     -0.38218     -0.26804 *
 * O              22      0.34551      0.38191     -0.26786 *
 * O              23     -0.34544      0.38201      0.26779 *
 * O              24     -0.34548     -0.38190      0.26786 *
 * O              25     -0.08224     -0.11142      0.40994 *
 * O              26     -0.08234      0.11149      0.41040 *
 * O              27      0.08239      0.11142     -0.41065 *
 * O              28      0.08227     -0.11141     -0.41026 *
 * O              29     -0.14424     -0.40175     -0.10122 *
 * O              30     -0.14441      0.40187     -0.10111 *
 * O              31      0.14441      0.40171      0.10132 *
 * O              32      0.14439     -0.40152      0.10114 *
 * O              33      0.34403     -0.24210      0.11859 *
 * O              34      0.34430      0.24233      0.11870 *
 * O              35     -0.34407      0.24210     -0.11861 *
 * O              36     -0.34404     -0.24200     -0.11843 *
 * O              37     -0.31075      0.14299     -0.08200 *
 * O              38     -0.31077     -0.14298     -0.08200 *
 * O              39      0.31084     -0.14300      0.08204 *
 * O              40      0.31092      0.14300      0.08213 *
 * O              41      0.18180      0.15234     -0.34177 *
 * O              42      0.18177     -0.15238     -0.34170 *
 * O              43     -0.18195     -0.15249      0.34209 *
 * O              44     -0.18174      0.15237      0.34167 *
 * O              45      0.20906      0.33344      0.17662 *
 * O              46      0.20930     -0.33376      0.17693 *
 * O              47     -0.20917     -0.33369     -0.17672 *
 * O              48     -0.20915      0.33356     -0.17676 *
 * P               1     -0.03998     -0.04657      0.01117 *
 * P               2     -0.04001      0.04667      0.01057 *
 * P               3      0.03986      0.04668     -0.01079 *
 * P               4      0.04021     -0.04685     -0.01085 *
 * P               5      0.09169     -0.02511      0.22567 *
 * P               6      0.09176      0.02474      0.22523 *
 * P               7     -0.09180      0.02503     -0.22524 *
 * P               8     -0.09163     -0.02516     -0.22514 *
 * P               9      0.03426      0.01027      0.02110 *
 * P              10      0.03406     -0.01040      0.02166 *
 * P              11     -0.03458     -0.01024     -0.02058 *
 * P              12     -0.03453      0.01015     -0.02194 *
 * Zr              1     -0.23759      0.01925      0.09113 *
 * Zr              2     -0.22297     -0.01235      0.18144 *
 * Zr              3      0.23763     -0.01941     -0.09096 *
 * Zr              4      0.22293      0.01244     -0.18165 *
 * Zr              5     -0.09955     -0.04418      0.06895 *
 * Zr              6     -0.09707      0.04060      0.07723 *
 * Zr              7      0.09955      0.04453     -0.06897 *
 * Zr              8      0.09693     -0.04060     -0.07734 *
 *                                                          *
 ************************************************************

 Pseudo atomic calculation performed for Li 1s2 2s1

 Converged in 18 iterations to a total energy of -200.5098 eV

 Pseudo atomic calculation performed for O 2s2 2p4

 Converged in 24 iterations to a total energy of -432.3399 eV

 Pseudo atomic calculation performed for P 3s2 3p3

 Converged in 18 iterations to a total energy of -214.2237 eV

 Pseudo atomic calculation performed for Zr 4s2 4p6 4d2 5s2

 Converged in 25 iterations to a total energy of -1285.8617 eV
Charge spilling parameter for spin component 1 = 0.94%

            Orbital Populations       
     Ion    Atom   Orbital             Charge
  -------------------------------------------
     Li     1      S                    2.001
     Li     1      S                   -0.023
     Li     1      Px                   0.019
     Li     1      Py                   0.029
     Li     1      Pz                   0.029
     Li     2      S                    2.001
     Li     2      S                   -0.023
     Li     2      Px                   0.019
     Li     2      Py                   0.029
     Li     2      Pz                   0.029
     Li     3      S                    2.001
     Li     3      S                   -0.023
     Li     3      Px                   0.019
     Li     3      Py                   0.029
     Li     3      Pz                   0.029
     Li     4      S                    2.001
     Li     4      S                   -0.023
     Li     4      Px                   0.019
     Li     4      Py                   0.029
     Li     4      Pz                   0.029
      O     1      S                    1.827
      O     1      Px                   1.769
      O     1      Py                   1.776
      O     1      Pz                   1.565
      O     2      S                    1.827
      O     2      Px                   1.769
      O     2      Py                   1.776
      O     2      Pz                   1.564
      O     3      S                    1.827
      O     3      Px                   1.769
      O     3      Py                   1.776
      O     3      Pz                   1.564
      O     4      S                    1.827
      O     4      Px                   1.769
      O     4      Py                   1.776
      O     4      Pz                   1.564
      O     5      S                    1.845
      O     5      Px                   1.771
      O     5      Py                   1.574
      O     5      Pz                   1.777
      O     6      S                    1.845
      O     6      Px                   1.771
      O     6      Py                   1.574
      O     6      Pz                   1.777
      O     7      S                    1.845
      O     7      Px                   1.771
      O     7      Py                   1.574
      O     7      Pz                   1.777
      O     8      S                    1.845
      O     8      Px                   1.771
      O     8      Py                   1.574
      O     8      Pz                   1.777
      O     9      S                    1.829
      O     9      Px                   1.682
      O     9      Py                   1.693
      O     9      Pz                   1.725
      O    10      S                    1.829
      O    10      Px                   1.682
      O    10      Py                   1.693
      O    10      Pz                   1.725
      O    11      S                    1.829
      O    11      Px                   1.682
      O    11      Py                   1.693
      O    11      Pz                   1.725
      O    12      S                    1.829
      O    12      Px                   1.682
      O    12      Py                   1.693
      O    12      Pz                   1.725
      O    13      S                    1.841
      O    13      Px                   1.542
      O    13      Py                   1.780
      O    13      Pz                   1.814
      O    14      S                    1.841
      O    14      Px                   1.542
      O    14      Py                   1.780
      O    14      Pz                   1.814
      O    15      S                    1.841
      O    15      Px                   1.543
      O    15      Py                   1.780
      O    15      Pz                   1.814
      O    16      S                    1.841
      O    16      Px                   1.543
      O    16      Py                   1.780
      O    16      Pz                   1.814
      O    17      S                    1.839
      O    17      Px                   1.789
      O    17      Py                   1.683
      O    17      Pz                   1.662
      O    18      S                    1.839
      O    18      Px                   1.789
      O    18      Py                   1.683
      O    18      Pz                   1.662
      O    19      S                    1.839
      O    19      Px                   1.789
      O    19      Py                   1.683
      O    19      Pz                   1.662
      O    20      S                    1.839
      O    20      Px                   1.789
      O    20      Py                   1.683
      O    20      Pz                   1.662
      O    21      S                    1.838
      O    21      Px                   1.704
      O    21      Py                   1.694
      O    21      Pz                   1.735
      O    22      S                    1.838
      O    22      Px                   1.704
      O    22      Py                   1.694
      O    22      Pz                   1.735
      O    23      S                    1.838
      O    23      Px                   1.704
      O    23      Py                   1.694
      O    23      Pz                   1.735
      O    24      S                    1.838
      O    24      Px                   1.704
      O    24      Py                   1.694
      O    24      Pz                   1.735
      O    25      S                    1.825
      O    25      Px                   1.765
      O    25      Py                   1.789
      O    25      Pz                   1.583
      O    26      S                    1.825
      O    26      Px                   1.765
      O    26      Py                   1.789
      O    26      Pz                   1.583
      O    27      S                    1.825
      O    27      Px                   1.765
      O    27      Py                   1.789
      O    27      Pz                   1.583
      O    28      S                    1.825
      O    28      Px                   1.765
      O    28      Py                   1.789
      O    28      Pz                   1.583
      O    29      S                    1.838
      O    29      Px                   1.778
      O    29      Py                   1.548
      O    29      Pz                   1.790
      O    30      S                    1.838
      O    30      Px                   1.778
      O    30      Py                   1.548
      O    30      Pz                   1.789
      O    31      S                    1.838
      O    31      Px                   1.778
      O    31      Py                   1.548
      O    31      Pz                   1.789
      O    32      S                    1.838
      O    32      Px                   1.778
      O    32      Py                   1.548
      O    32      Pz                   1.790
      O    33      S                    1.836
      O    33      Px                   1.684
      O    33      Py                   1.720
      O    33      Pz                   1.713
      O    34      S                    1.836
      O    34      Px                   1.684
      O    34      Py                   1.720
      O    34      Pz                   1.713
      O    35      S                    1.836
      O    35      Px                   1.684
      O    35      Py                   1.720
      O    35      Pz                   1.713
      O    36      S                    1.836
      O    36      Px                   1.684
      O    36      Py                   1.720
      O    36      Pz                   1.713
      O    37      S                    1.843
      O    37      Px                   1.532
      O    37      Py                   1.775
      O    37      Pz                   1.795
      O    38      S                    1.843
      O    38      Px                   1.532
      O    38      Py                   1.775
      O    38      Pz                   1.795
      O    39      S                    1.843
      O    39      Px                   1.532
      O    39      Py                   1.776
      O    39      Pz                   1.795
      O    40      S                    1.843
      O    40      Px                   1.532
      O    40      Py                   1.776
      O    40      Pz                   1.795
      O    41      S                    1.838
      O    41      Px                   1.745
      O    41      Py                   1.722
      O    41      Pz                   1.643
      O    42      S                    1.838
      O    42      Px                   1.745
      O    42      Py                   1.722
      O    42      Pz                   1.643
      O    43      S                    1.838
      O    43      Px                   1.745
      O    43      Py                   1.722
      O    43      Pz                   1.643
      O    44      S                    1.838
      O    44      Px                   1.745
      O    44      Py                   1.722
      O    44      Pz                   1.643
      O    45      S                    1.831
      O    45      Px                   1.721
      O    45      Py                   1.686
      O    45      Pz                   1.710
      O    46      S                    1.831
      O    46      Px                   1.721
      O    46      Py                   1.686
      O    46      Pz                   1.710
      O    47      S                    1.831
      O    47      Px                   1.721
      O    47      Py                   1.686
      O    47      Pz                   1.710
      O    48      S                    1.831
      O    48      Px                   1.721
      O    48      Py                   1.686
      O    48      Pz                   1.710
      P     1      S                    0.904
      P     1      Px                   0.608
      P     1      Py                   0.636
      P     1      Pz                   0.610
      P     2      S                    0.904
      P     2      Px                   0.608
      P     2      Py                   0.636
      P     2      Pz                   0.610
      P     3      S                    0.904
      P     3      Px                   0.608
      P     3      Py                   0.636
      P     3      Pz                   0.610
      P     4      S                    0.904
      P     4      Px                   0.608
      P     4      Py                   0.636
      P     4      Pz                   0.610
      P     5      S                    0.888
      P     5      Px                   0.620
      P     5      Py                   0.600
      P     5      Pz                   0.610
      P     6      S                    0.888
      P     6      Px                   0.620
      P     6      Py                   0.600
      P     6      Pz                   0.610
      P     7      S                    0.888
      P     7      Px                   0.620
      P     7      Py                   0.600
      P     7      Pz                   0.610
      P     8      S                    0.888
      P     8      Px                   0.620
      P     8      Py                   0.600
      P     8      Pz                   0.610
      P     9      S                    0.886
      P     9      Px                   0.619
      P     9      Py                   0.614
      P     9      Pz                   0.597
      P    10      S                    0.886
      P    10      Px                   0.619
      P    10      Py                   0.614
      P    10      Pz                   0.597
      P    11      S                    0.886
      P    11      Px                   0.619
      P    11      Py                   0.614
      P    11      Pz                   0.597
      P    12      S                    0.886
      P    12      Px                   0.619
      P    12      Py                   0.614
      P    12      Pz                   0.597
     Zr     1      S                    1.993
     Zr     1      Px                   1.991
     Zr     1      Py                   1.989
     Zr     1      Pz                   1.989
     Zr     1      S                    0.253
     Zr     1      Dzz                  0.387
     Zr     1      Dzy                  0.333
     Zr     1      Dzx                  0.367
     Zr     1      Dxx-yy               0.321
     Zr     1      Dxy                  0.390
     Zr     1      Px                   0.055
     Zr     1      Py                   0.054
     Zr     1      Pz                   0.049
     Zr     2      S                    1.993
     Zr     2      Px                   1.991
     Zr     2      Py                   1.989
     Zr     2      Pz                   1.989
     Zr     2      S                    0.254
     Zr     2      Dzz                  0.387
     Zr     2      Dzy                  0.333
     Zr     2      Dzx                  0.367
     Zr     2      Dxx-yy               0.321
     Zr     2      Dxy                  0.390
     Zr     2      Px                   0.055
     Zr     2      Py                   0.054
     Zr     2      Pz                   0.049
     Zr     3      S                    1.993
     Zr     3      Px                   1.991
     Zr     3      Py                   1.989
     Zr     3      Pz                   1.989
     Zr     3      S                    0.253
     Zr     3      Dzz                  0.387
     Zr     3      Dzy                  0.333
     Zr     3      Dzx                  0.367
     Zr     3      Dxx-yy               0.321
     Zr     3      Dxy                  0.390
     Zr     3      Px                   0.055
     Zr     3      Py                   0.054
     Zr     3      Pz                   0.049
     Zr     4      S                    1.993
     Zr     4      Px                   1.991
     Zr     4      Py                   1.989
     Zr     4      Pz                   1.989
     Zr     4      S                    0.254
     Zr     4      Dzz                  0.387
     Zr     4      Dzy                  0.333
     Zr     4      Dzx                  0.367
     Zr     4      Dxx-yy               0.321
     Zr     4      Dxy                  0.390
     Zr     4      Px                   0.055
     Zr     4      Py                   0.054
     Zr     4      Pz                   0.049
     Zr     5      S                    1.995
     Zr     5      Px                   1.990
     Zr     5      Py                   1.990
     Zr     5      Pz                   1.990
     Zr     5      S                    0.199
     Zr     5      Dzz                  0.373
     Zr     5      Dzy                  0.336
     Zr     5      Dzx                  0.346
     Zr     5      Dxx-yy               0.329
     Zr     5      Dxy                  0.393
     Zr     5      Px                   0.052
     Zr     5      Py                   0.056
     Zr     5      Pz                   0.064
     Zr     6      S                    1.995
     Zr     6      Px                   1.990
     Zr     6      Py                   1.990
     Zr     6      Pz                   1.990
     Zr     6      S                    0.199
     Zr     6      Dzz                  0.373
     Zr     6      Dzy                  0.336
     Zr     6      Dzx                  0.346
     Zr     6      Dxx-yy               0.329
     Zr     6      Dxy                  0.393
     Zr     6      Px                   0.052
     Zr     6      Py                   0.056
     Zr     6      Pz                   0.064
     Zr     7      S                    1.995
     Zr     7      Px                   1.990
     Zr     7      Py                   1.990
     Zr     7      Pz                   1.990
     Zr     7      S                    0.199
     Zr     7      Dzz                  0.373
     Zr     7      Dzy                  0.336
     Zr     7      Dzx                  0.346
     Zr     7      Dxx-yy               0.329
     Zr     7      Dxy                  0.393
     Zr     7      Px                   0.052
     Zr     7      Py                   0.056
     Zr     7      Pz                   0.064
     Zr     8      S                    1.995
     Zr     8      Px                   1.990
     Zr     8      Py                   1.990
     Zr     8      Pz                   1.990
     Zr     8      S                    0.199
     Zr     8      Dzz                  0.373
     Zr     8      Dzy                  0.336
     Zr     8      Dzx                  0.346
     Zr     8      Dxx-yy               0.329
     Zr     8      Dxy                  0.393
     Zr     8      Px                   0.052
     Zr     8      Py                   0.056
     Zr     8      Pz                   0.064
  -------------------------------------------
                           Total:     455.989
  -------------------------------------------

     Atomic Populations (Mulliken)
     -----------------------------
Species          Ion     s       p       d       f      Total   Charge (e)
==========================================================================
  Li              1     1.977   0.077   0.000   0.000   2.055     0.945
  Li              2     1.977   0.077   0.000   0.000   2.055     0.945
  Li              3     1.977   0.077   0.000   0.000   2.055     0.945
  Li              4     1.977   0.077   0.000   0.000   2.055     0.945
  O               1     1.827   5.109   0.000   0.000   6.936    -0.936
  O               2     1.827   5.109   0.000   0.000   6.936    -0.936
  O               3     1.827   5.110   0.000   0.000   6.937    -0.937
  O               4     1.827   5.109   0.000   0.000   6.937    -0.937
  O               5     1.845   5.123   0.000   0.000   6.967    -0.967
  O               6     1.845   5.123   0.000   0.000   6.967    -0.967
  O               7     1.845   5.123   0.000   0.000   6.967    -0.967
  O               8     1.845   5.123   0.000   0.000   6.967    -0.967
  O               9     1.829   5.100   0.000   0.000   6.929    -0.929
  O              10     1.829   5.100   0.000   0.000   6.929    -0.929
  O              11     1.829   5.100   0.000   0.000   6.929    -0.929
  O              12     1.829   5.100   0.000   0.000   6.929    -0.929
  O              13     1.841   5.137   0.000   0.000   6.978    -0.978
  O              14     1.841   5.137   0.000   0.000   6.978    -0.978
  O              15     1.841   5.137   0.000   0.000   6.978    -0.978
  O              16     1.841   5.136   0.000   0.000   6.977    -0.977
  O              17     1.839   5.134   0.000   0.000   6.973    -0.973
  O              18     1.839   5.134   0.000   0.000   6.973    -0.973
  O              19     1.839   5.134   0.000   0.000   6.973    -0.973
  O              20     1.839   5.134   0.000   0.000   6.973    -0.973
  O              21     1.838   5.133   0.000   0.000   6.971    -0.971
  O              22     1.838   5.133   0.000   0.000   6.971    -0.971
  O              23     1.838   5.133   0.000   0.000   6.971    -0.971
  O              24     1.838   5.133   0.000   0.000   6.971    -0.971
  O              25     1.825   5.137   0.000   0.000   6.962    -0.962
  O              26     1.825   5.137   0.000   0.000   6.962    -0.962
  O              27     1.825   5.137   0.000   0.000   6.962    -0.962
  O              28     1.825   5.137   0.000   0.000   6.962    -0.962
  O              29     1.838   5.116   0.000   0.000   6.954    -0.954
  O              30     1.838   5.116   0.000   0.000   6.954    -0.954
  O              31     1.838   5.116   0.000   0.000   6.954    -0.954
  O              32     1.838   5.116   0.000   0.000   6.954    -0.954
  O              33     1.836   5.117   0.000   0.000   6.954    -0.954
  O              34     1.836   5.117   0.000   0.000   6.954    -0.954
  O              35     1.836   5.117   0.000   0.000   6.954    -0.954
  O              36     1.836   5.117   0.000   0.000   6.953    -0.953
  O              37     1.843   5.102   0.000   0.000   6.945    -0.945
  O              38     1.843   5.102   0.000   0.000   6.945    -0.945
  O              39     1.843   5.102   0.000   0.000   6.945    -0.945
  O              40     1.843   5.102   0.000   0.000   6.945    -0.945
  O              41     1.838   5.110   0.000   0.000   6.949    -0.949
  O              42     1.838   5.110   0.000   0.000   6.949    -0.949
  O              43     1.838   5.110   0.000   0.000   6.949    -0.949
  O              44     1.838   5.110   0.000   0.000   6.949    -0.949
  O              45     1.831   5.117   0.000   0.000   6.948    -0.948
  O              46     1.831   5.117   0.000   0.000   6.949    -0.949
  O              47     1.831   5.117   0.000   0.000   6.948    -0.948
  O              48     1.831   5.117   0.000   0.000   6.948    -0.948
  P               1     0.904   1.854   0.000   0.000   2.758     2.242
  P               2     0.904   1.854   0.000   0.000   2.758     2.242
  P               3     0.904   1.854   0.000   0.000   2.758     2.242
  P               4     0.904   1.854   0.000   0.000   2.758     2.242
  P               5     0.888   1.830   0.000   0.000   2.717     2.283
  P               6     0.888   1.830   0.000   0.000   2.717     2.283
  P               7     0.888   1.830   0.000   0.000   2.717     2.283
  P               8     0.888   1.830   0.000   0.000   2.717     2.283
  P               9     0.886   1.831   0.000   0.000   2.717     2.283
  P              10     0.886   1.831   0.000   0.000   2.717     2.283
  P              11     0.886   1.831   0.000   0.000   2.717     2.283
  P              12     0.886   1.831   0.000   0.000   2.717     2.283
  Zr              1     2.247   6.127   1.798   0.000  10.172     1.828
  Zr              2     2.247   6.127   1.798   0.000  10.172     1.828
  Zr              3     2.247   6.127   1.798   0.000  10.172     1.828
  Zr              4     2.247   6.127   1.798   0.000  10.172     1.828
  Zr              5     2.193   6.143   1.776   0.000  10.113     1.887
  Zr              6     2.193   6.143   1.776   0.000  10.113     1.887
  Zr              7     2.193   6.144   1.776   0.000  10.113     1.887
  Zr              8     2.193   6.143   1.776   0.000  10.113     1.887
==========================================================================

                 Bond                   Population      Length (A)
======================================================================
              O 46 -- P 12                   0.66        1.53166
              O 48 -- P 10                   0.66        1.53166
              O 45 -- P 11                   0.66        1.53166
              O 47 -- P 9                    0.66        1.53166
              O 26 -- P 2                    0.67        1.53173
              O 27 -- P 3                    0.67        1.53173
              O 28 -- P 4                    0.67        1.53173
              O 25 -- P 1                    0.67        1.53174
              O 34 -- P 10                   0.67        1.53230
              O 35 -- P 11                   0.67        1.53230
              O 33 -- P 9                    0.67        1.53231
              O 36 -- P 12                   0.67        1.53231
              O 39 -- P 1                    0.67        1.53281
              O 37 -- P 3                    0.67        1.53281
              O 38 -- P 4                    0.67        1.53281
              O 40 -- P 2                    0.67        1.53281
              O 43 -- P 6                    0.66        1.53365
              O 42 -- P 7                    0.66        1.53365
              O 41 -- P 8                    0.66        1.53365
              O 44 -- P 5                    0.66        1.53365
              O 30 -- P 6                    0.67        1.53591
              O 29 -- P 5                    0.67        1.53591
              O 31 -- P 7                    0.67        1.53591
              O 32 -- P 8                    0.67        1.53591
              O 9  -- P 9                    0.63        1.54434
              O 12 -- P 12                   0.63        1.54434
              O 10 -- P 10                   0.63        1.54434
              O 11 -- P 11                   0.63        1.54434
              O 2  -- P 6                    0.62        1.54645
              O 1  -- P 5                    0.62        1.54645
              O 4  -- P 8                    0.62        1.54646
              O 3  -- P 7                    0.62        1.54646
              O 21 -- P 11                   0.60        1.55869
              O 22 -- P 12                   0.60        1.55870
              O 23 -- P 9                    0.60        1.55870
              O 24 -- P 10                   0.60        1.55871
              O 13 -- P 7                    0.61        1.55953
              O 14 -- P 8                    0.61        1.55953
              O 15 -- P 5                    0.61        1.55953
              O 16 -- P 6                    0.61        1.55953
              O 7  -- P 3                    0.61        1.56198
              O 5  -- P 1                    0.61        1.56198
              O 8  -- P 4                    0.61        1.56198
              O 6  -- P 2                    0.61        1.56198
              O 20 -- P 1                    0.61        1.56513
              O 18 -- P 3                    0.61        1.56513
              O 19 -- P 2                    0.61        1.56513
              O 17 -- P 4                    0.61        1.56514
              Li 4 -- O 19                   0.09        2.00373
              Li 1 -- O 18                   0.09        2.00373
              Li 2 -- O 17                   0.09        2.00374
              Li 3 -- O 20                   0.09        2.00375
              O 3  -- Zr 3                   0.43        2.03689
              O 2  -- Zr 2                   0.43        2.03690
              O 1  -- Zr 1                   0.43        2.03690
              O 4  -- Zr 4                   0.43        2.03691
              Li 2 -- O 24                   0.07        2.04159
              Li 1 -- O 23                   0.07        2.04159
              Li 3 -- O 21                   0.07        2.04160
              Li 4 -- O 22                   0.07        2.04160
              O 11 -- Zr 3                   0.42        2.04277
              O 10 -- Zr 2                   0.42        2.04277
              O 12 -- Zr 4                   0.42        2.04277
              O 9  -- Zr 1                   0.42        2.04278
              Li 3 -- O 13                   0.07        2.04614
              Li 2 -- O 16                   0.07        2.04615
              Li 1 -- O 15                   0.07        2.04615
              Li 4 -- O 14                   0.07        2.04615
              Li 3 -- O 8                    0.09        2.05728
              Li 1 -- O 6                    0.09        2.05729
              Li 4 -- O 7                    0.09        2.05729
              Li 2 -- O 5                    0.09        2.05730
              O 45 -- Zr 5                   0.39        2.07356
              O 47 -- Zr 7                   0.39        2.07357
              O 48 -- Zr 8                   0.39        2.07357
              O 46 -- Zr 6                   0.39        2.07358
              O 41 -- Zr 5                   0.35        2.08834
              O 42 -- Zr 6                   0.35        2.08835
              O 44 -- Zr 8                   0.35        2.08835
              O 43 -- Zr 7                   0.35        2.08837
              O 25 -- Zr 5                   0.41        2.10940
              O 26 -- Zr 6                   0.41        2.10941
              O 27 -- Zr 7                   0.41        2.10941
              O 28 -- Zr 8                   0.41        2.10941
              O 32 -- Zr 8                   0.37        2.11074
              O 31 -- Zr 7                   0.37        2.11074
              O 30 -- Zr 6                   0.37        2.11074
              O 29 -- Zr 5                   0.37        2.11075
              O 38 -- Zr 6                   0.36        2.11119
              O 40 -- Zr 8                   0.36        2.11120
              O 37 -- Zr 5                   0.36        2.11120
              O 39 -- Zr 7                   0.36        2.11120
              O 35 -- Zr 7                   0.37        2.11387
              O 33 -- Zr 5                   0.38        2.11388
              O 36 -- Zr 8                   0.37        2.11389
              O 34 -- Zr 6                   0.37        2.11389
              O 22 -- Zr 2                   0.34        2.12948
              O 21 -- Zr 1                   0.34        2.12948
              O 23 -- Zr 3                   0.34        2.12948
              O 24 -- Zr 4                   0.34        2.12948
              O 16 -- Zr 4                   0.35        2.15115
              O 14 -- Zr 2                   0.35        2.15115
              O 13 -- Zr 1                   0.35        2.15115
              O 15 -- Zr 3                   0.35        2.15115
              O 8  -- Zr 4                   0.34        2.16463
              O 7  -- Zr 3                   0.34        2.16463
              O 6  -- Zr 2                   0.34        2.16463
              O 5  -- Zr 1                   0.34        2.16463
              O 18 -- Zr 2                   0.36        2.16512
              O 20 -- Zr 4                   0.36        2.16512
              O 17 -- Zr 1                   0.36        2.16512
              O 19 -- Zr 3                   0.36        2.16512
              O 22 -- O 46                  -0.13        2.49416
              O 21 -- O 45                  -0.13        2.49416
              O 23 -- O 47                  -0.13        2.49416
              O 24 -- O 48                  -0.13        2.49417
              O 12 -- O 46                  -0.13        2.49781
              O 11 -- O 45                  -0.13        2.49782
              O 9  -- O 47                  -0.13        2.49782
              O 10 -- O 48                  -0.13        2.49782
              O 24 -- O 34                  -0.13        2.50072
              O 21 -- O 35                  -0.13        2.50073
              O 22 -- O 36                  -0.13        2.50073
              O 23 -- O 33                  -0.13        2.50073
              O 16 -- O 30                  -0.13        2.50251
              O 15 -- O 29                  -0.13        2.50252
              O 14 -- O 32                  -0.13        2.50252
              O 13 -- O 31                  -0.13        2.50252
              O 18 -- O 27                  -0.13        2.50283
              O 17 -- O 28                  -0.13        2.50283
              O 19 -- O 26                  -0.13        2.50284
              O 20 -- O 25                  -0.13        2.50284
              O 2  -- O 43                  -0.12        2.51391
              O 1  -- O 44                  -0.12        2.51391
              O 4  -- O 41                  -0.12        2.51392
              O 3  -- O 42                  -0.12        2.51392
              O 2  -- O 16                  -0.12        2.51607
              O 3  -- O 13                  -0.12        2.51608
              O 4  -- O 14                  -0.12        2.51608
              O 1  -- O 15                  -0.12        2.51609
              O 7  -- O 27                  -0.12        2.52080
              O 5  -- O 25                  -0.12        2.52081
              O 8  -- O 28                  -0.12        2.52081
              O 6  -- O 26                  -0.12        2.52082
              O 20 -- O 39                  -0.12        2.52393
              O 18 -- O 37                  -0.12        2.52393
              O 19 -- O 40                  -0.12        2.52393
              O 17 -- O 38                  -0.12        2.52395
              O 1  -- O 29                  -0.12        2.52484
              O 4  -- O 32                  -0.12        2.52485
              O 2  -- O 30                  -0.12        2.52485
              O 3  -- O 31                  -0.12        2.52486
              O 16 -- O 43                  -0.12        2.52486
              O 13 -- O 42                  -0.12        2.52487
              O 14 -- O 41                  -0.12        2.52487
              O 15 -- O 44                  -0.12        2.52487
              O 10 -- O 34                  -0.12        2.53271
              O 9  -- O 33                  -0.12        2.53271
              O 12 -- O 36                  -0.12        2.53272
              O 11 -- O 35                  -0.12        2.53272
              O 11 -- O 21                  -0.11        2.53399
              O 9  -- O 23                  -0.11        2.53399
              O 10 -- O 24                  -0.11        2.53399
              O 12 -- O 22                  -0.11        2.53399
              O 6  -- O 40                  -0.12        2.53788
              O 8  -- O 38                  -0.12        2.53789
              O 7  -- O 37                  -0.12        2.53789
              O 5  -- O 39                  -0.12        2.53789
              O 28 -- O 38                  -0.12        2.53926
              O 27 -- O 37                  -0.12        2.53926
              O 26 -- O 40                  -0.12        2.53926
              O 25 -- O 39                  -0.12        2.53926
              O 7  -- O 18                  -0.11        2.53933
              O 5  -- O 20                  -0.11        2.53934
              O 6  -- O 19                  -0.11        2.53935
              O 8  -- O 17                  -0.11        2.53935
              O 31 -- O 42                  -0.12        2.54241
              O 29 -- O 44                  -0.12        2.54241
              O 30 -- O 43                  -0.12        2.54241
              O 32 -- O 41                  -0.12        2.54241
              O 36 -- O 46                  -0.12        2.54382
              O 34 -- O 48                  -0.12        2.54382
              O 35 -- O 45                  -0.12        2.54382
              O 33 -- O 47                  -0.12        2.54383
              O 15 -- O 23                  -0.04        2.71832
              O 14 -- O 22                  -0.04        2.71834
              O 16 -- O 24                  -0.04        2.71834
              O 13 -- O 21                  -0.04        2.71834
              O 5  -- O 17                  -0.03        2.74091
              O 7  -- O 19                  -0.03        2.74091
              O 6  -- O 18                  -0.03        2.74092
              O 8  -- O 20                  -0.03        2.74093
              O 27 -- O 47                  -0.02        2.89207
              O 25 -- O 45                  -0.02        2.89207
              O 28 -- O 48                  -0.02        2.89207
              O 26 -- O 46                  -0.02        2.89208
              O 2  -- O 10                  -0.02        2.89597
              O 4  -- O 12                  -0.02        2.89598
              O 1  -- O 9                   -0.02        2.89598
              O 3  -- O 11                  -0.02        2.89599
              O 35 -- O 47                  -0.02        2.91341
              O 36 -- O 48                  -0.02        2.91342
              O 33 -- O 45                  -0.02        2.91342
              O 34 -- O 46                  -0.02        2.91343
              O 41 -- O 45                  -0.02        2.91909
              O 44 -- O 48                  -0.02        2.91910
              O 42 -- O 46                  -0.02        2.91910
              O 43 -- O 47                  -0.02        2.91911
              O 15 -- O 19                  -0.02        2.92377
              O 14 -- O 18                  -0.02        2.92378
              O 13 -- O 17                  -0.02        2.92378
              O 16 -- O 20                  -0.02        2.92378
              O 26 -- O 38                  -0.02        2.92817
              O 28 -- O 40                  -0.02        2.92818
              O 25 -- O 37                  -0.02        2.92818
              O 27 -- O 39                  -0.02        2.92818
              O 12 -- O 24                  -0.02        2.93066
              O 10 -- O 22                  -0.02        2.93066
              O 9  -- O 21                  -0.02        2.93066
              O 11 -- O 23                  -0.02        2.93067
              O 4  -- O 16                  -0.02        2.94613
              O 2  -- O 14                  -0.02        2.94614
              O 3  -- O 15                  -0.02        2.94614
              O 1  -- O 13                  -0.02        2.94615
              O 31 -- O 35                  -0.02        2.95061
              O 29 -- O 33                  -0.02        2.95061
              O 32 -- O 36                  -0.02        2.95062
              O 30 -- O 34                  -0.02        2.95062
              O 27 -- O 35                  -0.02        2.95772
              O 25 -- O 33                  -0.02        2.95772
              O 26 -- O 34                  -0.02        2.95772
              O 28 -- O 36                  -0.02        2.95773
              O 19 -- O 23                  -0.02        2.96757
              O 17 -- O 21                  -0.02        2.96757
              O 18 -- O 22                  -0.02        2.96758
              O 20 -- O 24                  -0.02        2.96758
              O 25 -- O 29                  -0.02        2.97609
              O 26 -- O 30                  -0.02        2.97610
              O 28 -- O 32                  -0.02        2.97610
              O 27 -- O 31                  -0.02        2.97611
              O 37 -- O 41                  -0.02        2.97788
              O 38 -- O 42                  -0.02        2.97788
              O 40 -- O 44                  -0.02        2.97788
              O 39 -- O 43                  -0.02        2.97789
              O 31 -- O 39                  -0.01        2.98443
              O 30 -- O 38                  -0.01        2.98443
              O 32 -- O 40                  -0.01        2.98443
              O 29 -- O 37                  -0.01        2.98443
              O 6  -- O 10                  -0.02        2.99510
              O 8  -- O 12                  -0.02        2.99510
              O 7  -- O 11                  -0.02        2.99511
              O 5  -- O 9                   -0.02        2.99512
======================================================================


Writing analysis data to ml_dos.castep_bin

Writing model to ml_dos.check
 
 A BibTeX formatted list of references used in this run has been written to 
 ml_dos.bib
 
Initialisation time =     17.11 s
Calculation time    =   5881.37 s
Finalisation time   =      7.98 s
Total time          =   5906.46 s
Peak Memory Use     = 4865052 kB
 
Overall parallel efficiency rating: Satisfactory (64%)
 
Data was distributed by:-
G-vector (3-way); efficiency rating: Satisfactory (65%)
k-point (6-way); efficiency rating: Excellent (96%)
