 +-------------------------------------------------+
 |                                                 |
 |      CCC   AA    SSS  TTTTT  EEEEE  PPPP        |
 |     C     A  A  S       T    E      P   P       |
 |     C     AAAA   SS     T    EEE    PPPP        |
 |     C     A  A     S    T    E      P           |
 |      CCC  A  A  SSS     T    EEEEE  P           |
 |                                                 |
 +-------------------------------------------------+
 |                                                 |
 | Welcome to Academic Release CASTEP version 25.12|
 | Ab Initio Total Energy Program                  |
 |                                                 |
 | Authors:                                        |
 | M. Segall, M. Probert, C. Pickard, P. Hasnip,   |
 | S. Clark, K. Refson, J. R. Yates,               |
 | A. Bartok-Partay, M. Payne                      |
 |                                                 |
 | Contributors:                                   |
 | P. Lindan, P. Haynes, J. White, V. Milman,      |
 | N. Govind, M. Gibson, P. Tulip, V. Cocula,      |
 | B. Montanari, D. Quigley, M. Glover,            |
 | L. Bernasconi, A. Perlov, M. Plummer,           |
 | E. McNellis, J. Meyer, J. Gale, D. Jochym       |
 | J. Aarons, B. Walker, R. Gillen, D. Jones       |
 | T. Green, I. J. Bush, C. J. Armstrong,          |
 | E. J. Higgins, E. L. Brown, M. S. McFly,        |
 | J. Wilkins, B-C. Shih, P. J. P. Byrne,          |
 | R. J. Maurer, J. C. Womack, J. Dziedzic,        |
 | L. LeBlanc, T. K. Stenczel, J. Kermode,         |
 | S. Sturniolo, B. Shi, B. Durham, M. Evans,      |
 | M. J. Smith, A. Tamerus, Z. Hawkhead,           |
 | V. Ravindran, T. Hollins, S. A. Joyce,          |
 | R. T. Strong, A. M. Reilly, S. J. Donaldson,    |
 | J. C. A. Prentice                               |
 |                                                 |
 | Copyright (c) 2000 - 2024                       |
 |                                                 |
 |     Distributed under license from Cambridge    |
 |     Enterprise for academic use only.           |
 |                                                 |
 | Please cite                                     |
 |                                                 |
 |     "First principles methods using CASTEP"     |
 |                                                 |
 |         Zeitschrift fuer Kristallographie       |
 |           220(5-6) pp. 567-570 (2005)           |
 |                                                 |
 | S. J. Clark, M. D. Segall, C. J. Pickard,       |
 | P. J. Hasnip, M. J. Probert, K. Refson,         |
 | M. C. Payne                                     |
 |                                                 |
 |       in all publications arising from          |
 |              your use of CASTEP                 |
 |                                                 |
 +-------------------------------------------------+
 |                                                 |
 |              http://www.castep.org              |
 |                                                 |
 +-------------------------------------------------+



 Compiled for linux_x86_64_gfortran10 on Sun, 13 Jul 2025 14:49:40 -0400
 from code version git version unavailable
 Compiler: GNU Fortran 13.3.0; Optimisation: fast
 Comms   : Open MPI v5.0.3
 MATHLIBS: flexiblas (IMKL) (LAPACK version 3.12.0)
 FFT Lib : fftw3 version fftw-3.3.10-sse2-avx-avx2-avx2_128
 Fundamental constants values: CODATA 2018

 Run started: Thu, 19 Feb 2026 22:56:39 -0500
 Warning in parameters_read: presetting of magnetic moments on atoms cannot be guaranteed when metals_method /= density mixing

 Atomic calculation performed for Li: 1s2 2s1

 Converged in 47 iterations to an ae energy of -202.784 eV

   ============================================================                
   | Pseudopotential Report - Date of generation 19-02-2026   |                
   ------------------------------------------------------------                
   | Element: Li Ionic charge:  3.00 Level of theory: PBE     |                
   | Atomic Solver: Koelling-Harmon                           |                
   |                                                          |                
   |               Reference Electronic Structure             |                
   |         Orbital         Occupation         Energy        |                
   |            1s              2.000           -1.906        |                
   |            2s              1.000           -0.106        |                
   |                                                          |                
   |                 Pseudopotential Definition               |                
   |        Beta     l      e      Rc     scheme   norm       |                
   |          1      0   -1.906   1.001     qc      0         |                
   |          2      0   -0.106   1.001     qc      0         |                
   |          3      0    0.250   1.001     qc      0         |                
   |         loc     1    0.000   1.001     pn      0         |                
   |                                                          |                
   | Augmentation charge Rinner = 0.699                       |                
   | No partial core correction                               |                
   ------------------------------------------------------------                
   | "1|1.0|14|16|18|10U:20(qc=7)"                            |                
   ------------------------------------------------------------                
   |      Author: Chris J. Pickard, Cambridge University      |                
   ============================================================                

 Atomic calculation performed for O: 1s2 2s2 2p4

 Converged in 61 iterations to an ae energy of -2040.902 eV

   ============================================================                
   | Pseudopotential Report - Date of generation 19-02-2026   |                
   ------------------------------------------------------------                
   | Element: O Ionic charge:  6.00 Level of theory: PBE      |                
   | Atomic Solver: Koelling-Harmon                           |                
   |                                                          |                
   |               Reference Electronic Structure             |                
   |         Orbital         Occupation         Energy        |                
   |            2s              2.000           -0.881        |                
   |            2p              4.000           -0.332        |                
   |                                                          |                
   |                 Pseudopotential Definition               |                
   |        Beta     l      e      Rc     scheme   norm       |                
   |          1      0   -0.881   1.100     qc      0         |                
   |          2      0    0.250   1.100     qc      0         |                
   |          3      1   -0.332   1.100     qc      0         |                
   |          4      1    0.250   1.100     qc      0         |                
   |         loc     2    0.000   1.100     pn      0         |                
   |                                                          |                
   | Augmentation charge Rinner = 0.769                       |                
   | Partial core correction Rc = 0.769                       |                
   ------------------------------------------------------------                
   | "2|1.1|17|20|23|20:21(qc=8)"                             |                
   ------------------------------------------------------------                
   |      Author: Chris J. Pickard, Cambridge University      |                
   ============================================================                

 Atomic calculation performed for V: 1s2 2s2 2p6 3s2 3p6 3d3 4s2

 Converged in 81 iterations to an ae energy of -25823.733 eV

   ============================================================                
   | Pseudopotential Report - Date of generation 19-02-2026   |                
   ------------------------------------------------------------                
   | Element: V Ionic charge: 13.00 Level of theory: PBE      |                
   | Atomic Solver: Koelling-Harmon                           |                
   |                                                          |                
   |               Reference Electronic Structure             |                
   |         Orbital         Occupation         Energy        |                
   |            3s              2.000           -2.581        |                
   |            3p              6.000           -1.618        |                
   |            3d              3.000           -0.190        |                
   |            4s              2.000           -0.173        |                
   |                                                          |                
   |                 Pseudopotential Definition               |                
   |        Beta     l      e      Rc     scheme   norm       |                
   |          1      0   -2.581   1.803     qc      0         |                
   |          2      0   -0.173   1.803     qc      0         |                
   |          3      0    0.250   1.803     qc      0         |                
   |          4      1   -1.618   1.803     qc      0         |                
   |          5      1    0.250   1.803     qc      0         |                
   |          6      2   -0.190   1.803     qc      0         |                
   |          7      2    0.250   1.803     qc      0         |                
   |         loc     3    0.000   1.803     pn      0         |                
   |                                                          |                
   | Augmentation charge Rinner = 0.600                       |                
   | Partial core correction Rc = 0.600                       |                
   ------------------------------------------------------------                
   | "3|1.8|1.8|0.6|12|14|16|30U:40:31:32(qc=7)"              |                
   ------------------------------------------------------------                
   |      Author: Chris J. Pickard, Cambridge University      |                
   ============================================================                

 Atomic calculation performed for Fe: 1s2 2s2 2p6 3s2 3p6 3d6 4s2

 Converged in 96 iterations to an ae energy of -34625.102 eV

   ============================================================                
   | Pseudopotential Report - Date of generation 19-02-2026   |                
   ------------------------------------------------------------                
   | Element: Fe Ionic charge:  8.00 Level of theory: PBE     |                
   | Atomic Solver: Koelling-Harmon                           |                
   |                                                          |                
   |               Reference Electronic Structure             |                
   |         Orbital         Occupation         Energy        |                
   |            3d              6.000           -0.276        |                
   |            4s              2.000           -0.194        |                
   |                                                          |                
   |                 Pseudopotential Definition               |                
   |        Beta     l      e      Rc     scheme   norm       |                
   |          1      0   -0.194   2.399     qc      0         |                
   |          2      0    0.250   2.399     qc      0         |                
   |          3      1    0.000   2.399     qc      0         |                
   |          4      1    0.250   2.399     qc      0         |                
   |          5      2   -0.276   1.997     qc      0         |                
   |          6      2    0.250   1.997     qc      0         |                
   |         loc     3    0.000   2.399     pn      0         |                
   |                                                          |                
   | Augmentation charge Rinner = 1.000                       |                
   | Partial core correction Rc = 1.000                       |                
   ------------------------------------------------------------                
   | "3|2.4|2.4|1.0|8|9|10|40:41:32U2U2(qc=5.5)"              |                
   ------------------------------------------------------------                
   |      Author: Chris J. Pickard, Cambridge University      |                
   ============================================================                

 Pseudo atomic calculation performed for Li 1s2 2s1

 Converged in 18 iterations to a total energy of -200.5098 eV

 Pseudo atomic calculation performed for O 2s2 2p4

 Converged in 24 iterations to a total energy of -432.3399 eV

 Pseudo atomic calculation performed for V 3s2 3p6 3d3 4s2

 Converged in 36 iterations to a total energy of -2065.8041 eV

 Pseudo atomic calculation performed for Fe 3d6 4s2

 Converged in 34 iterations to a total energy of -853.8318 eV
 Calculation parallelised over 40 processes.
 Data is distributed by G-vector(40-way)

 ************************************ Title ************************************
 

 ***************************** General Parameters ******************************
  
 output verbosity                               : normal  (1)
 write checkpoint data to                       : ml_dos.check
 type of calculation                            : Electronic Spectroscopy
 stress calculation                             : off
 density difference calculation                 : off
 electron localisation func (ELF) calculation   : off
 Hirshfeld analysis                             : off
 polarisation (Berry phase) analysis            : off
 molecular orbital projected DOS                : off
 deltaSCF calculation                           : off
 unlimited duration calculation
 timing information                             : on
 memory usage estimate                          : on
 write extra output files                       : on
 write final potential to formatted file        : off
 write final density to formatted file          : off
 write BibTeX reference list                    : on
 write OTFG pseudopotential files               : on
 write electrostatic potential file             : on
 write bands file                               : on
 checkpoint writing                             : both castep_bin and check files
  
 output         length unit                     : A
 output           mass unit                     : amu
 output           time unit                     : ps
 output         charge unit                     : e
 output           spin unit                     : hbar/2
 output         energy unit                     : eV
 output          force unit                     : eV/A
 output       velocity unit                     : A/ps
 output       pressure unit                     : GPa
 output     inv_length unit                     : 1/A
 output      frequency unit                     : cm-1
 output force constant unit                     : eV/A**2
 output         volume unit                     : A**3
 output   IR intensity unit                     : (D/A)**2/amu
 output         dipole unit                     : D
 output         efield unit                     : eV/A/e
 output        entropy unit                     : J/mol/K
 output    efield chi2 unit                     : pm/V
  
 wavefunctions paging                           : none
 random number generator seed                   :  225639435
 data distribution                              : optimal for this architecture
 optimization strategy                          : balance speed and memory

 *********************** Exchange-Correlation Parameters ***********************
  
 using functional                               : Perdew Burke Ernzerhof
 relativistic treatment                         : Koelling-Harmon
 DFT+D: Semi-empirical dispersion correction    : off

 ************************* Pseudopotential Parameters **************************
  
 pseudopotential representation                 : reciprocal space
 <beta|phi> representation                      : reciprocal space
 spin-orbit coupling                            : off

 **************************** Basis Set Parameters *****************************
  
 plane wave basis set cut-off                   :   900.0000   eV
 size of standard grid                          :     2.0000
 size of   fine   gmax                          :    30.7390   1/A
 finite basis set correction                    : none

 **************************** Electronic Parameters ****************************
  
 number of  electrons                           :  486.0    
 net charge of system                           :  0.000    
 net spin   of system                           :  39.00    
 number of  up  spins                           :  262.5    
 number of down spins                           :  223.5    
 treating system as spin-polarized
 number of bands                                :        316
 electron temperature                           :     0.0000   K

 ********************* Electronic Minimization Parameters **********************
  
 Method: Treating system as metallic with ensemble DFT treatment of electrons,
         and number of  SD  steps               :          1
         and number of  CG  steps               :          4
  
 total energy / atom convergence tol.           : 0.1000E-05   eV
 max force / atom convergence tol.              : ignored
 convergence tolerance window                   :          3   cycles
 max. number of SCF cycles                      :        100
 number of fixed-spin iterations                :         10
 smearing scheme                                : Gaussian
 smearing width                                 : 0.2000       eV
 Fermi energy convergence tolerance             : 0.2721E-13   eV
 number of occupancy cycles                     :          6
 periodic dipole correction                     : NONE

 *********************** Population Analysis Parameters ************************
  
 Population analysis with cutoff                :  3.000       A
 Population analysis output                     : summary and pdos components
 Partial DOS weights calculated

 ********************* Electronic Spectroscopy Parameters **********************
  
 electronic spectroscopy with theory level      : DFT       
 spectroscopy calculation                       : density of states
 max. number of iterations                      :         60
 max. steps per iteration                       :          5
 number of bands / k-point                      :        405
 band convergence tolerance                     : 0.1000E-05   eV
 write orbitals file                            : off

 *******************************************************************************
  

                           -------------------------------
                                      Unit Cell
                           -------------------------------
        Real Lattice(A)                      Reciprocal Lattice(1/A)
     8.1239610     0.0000000     0.0000000        0.773414017  -0.403591333   0.038490765
     3.7591190     7.2037110     0.0000000        0.000000000   0.872215072   0.038472217
    -1.0450350    -0.6333080    14.3579140        0.000000000   0.000000000   0.437611293

                       Lattice parameters(A)       Cell Angles
                    a =      8.123961          alpha =   94.158440
                    b =      8.125542          beta  =   94.158880
                    c =     14.409819          gamma =   62.443056

                       Current cell volume =           840.263423       A**3
                                   density =             2.008600   AMU/A**3
                                           =             3.335358     g/cm^3

                           -------------------------------
                                     Cell Contents
                           -------------------------------
                         Total number of ions in cell =   70
                      Total number of species in cell =    4
                        Max number of any one species =   42

            xxxxxxxxxxxxxxxxxxxxxxxxxxxxxxxxxxxxxxxxxxxxxxxxxxxxxxxxxxxx
            x  Element    Atom        Fractional coordinates of atoms  x
            x            Number           u          v          w      x
            x----------------------------------------------------------x
            x  Li           1         0.912330   0.307440   0.695576   x 
            x  Li           2         0.307616   0.912467   0.195541   x 
            x  Li           3         0.011230   0.649546   0.035599   x 
            x  Li           4         0.649661   0.011439   0.535667   x 
            x  Li           5         0.334846   0.698036   0.371435   x 
            x  Li           6         0.698187   0.334958   0.871431   x 
            x  Li           7         0.539804   0.041638   0.240074   x 
            x  Li           8         0.041448   0.539740   0.740191   x 
            x  Li           9         0.816204   0.229816   0.190266   x 
            x  Li          10         0.229731   0.816210   0.690203   x 
            x  O            1         0.145385   0.809806   0.478160   x 
            x  O            2         0.809705   0.145398   0.978153   x 
            x  O            3         0.194016   0.489162   0.138340   x 
            x  O            4         0.489319   0.194051   0.638420   x 
            x  O            5         0.282550   0.214552   0.284157   x 
            x  O            6         0.214527   0.282484   0.784227   x 
            x  O            7         0.903482   0.883324   0.119074   x 
            x  O            8         0.883380   0.903310   0.619192   x 
            x  O            9         0.777038   0.071238   0.284756   x 
            x  O           10         0.071054   0.776926   0.784824   x 
            x  O           11         0.157622   0.455585   0.444033   x 
            x  O           12         0.455386   0.157556   0.944163   x 
            x  O           13         0.647443   0.442388   0.618732   x 
            x  O           14         0.442463   0.647326   0.118743   x 
            x  O           15         0.825313   0.399123   0.294077   x 
            x  O           16         0.399030   0.825278   0.794115   x 
            x  O           17         0.612205   0.556608   0.439847   x 
            x  O           18         0.556667   0.612086   0.939868   x 
            x  O           19         0.532850   0.820105   0.298261   x 
            x  O           20         0.819986   0.532740   0.798287   x 
            x  O           21         0.541766   0.813010   0.605216   x 
            x  O           22         0.813086   0.541685   0.105165   x 
            x  O           23         0.283747   0.066660   0.457929   x 
            x  O           24         0.066399   0.283971   0.958001   x 
            x  O           25         0.923002   0.673746   0.282848   x 
            x  O           26         0.673613   0.922928   0.782913   x 
            x  O           27         0.162452   0.839283   0.268827   x 
            x  O           28         0.839359   0.162197   0.768901   x 
            x  O           29         0.452447   0.462103   0.289152   x 
            x  O           30         0.462200   0.452409   0.789170   x 
            x  O           31         0.895386   0.191954   0.472325   x 
            x  O           32         0.192053   0.895556   0.972281   x 
            x  O           33         0.579767   0.254154   0.128703   x 
            x  O           34         0.254218   0.579795   0.628704   x 
            x  O           35         0.787071   0.738580   0.471853   x 
            x  O           36         0.738478   0.787075   0.971824   x 
            x  O           37         0.144144   0.059931   0.631337   x 
            x  O           38         0.059949   0.144180   0.131352   x 
            x  O           39         0.541159   0.203380   0.431558   x 
            x  O           40         0.203408   0.541127   0.931555   x 
            x  O           41         0.924537   0.530487   0.611194   x 
            x  O           42         0.530535   0.924549   0.111223   x 
            x  V            1         0.410406   0.468896   0.169324   x 
            x  V            2         0.468977   0.410416   0.669342   x 
            x  V            3         0.725927   0.652291   0.348954   x 
            x  V            4         0.652177   0.725769   0.848973   x 
            x  V            5         0.110162   0.033127   0.512119   x 
            x  V            6         0.032972   0.110250   0.012140   x 
            x  V            7         0.696799   0.612789   0.557314   x 
            x  V            8         0.612838   0.696812   0.057293   x 
            x  V            9         0.315100   0.241983   0.402730   x 
            x  V           10         0.241911   0.315055   0.902799   x 
            x  V           11         0.949166   0.858722   0.239592   x 
            x  V           12         0.858729   0.948961   0.739660   x 
            x  Fe           1         0.698078   0.302420   0.372379   x 
            x  Fe           2         0.302307   0.698128   0.872461   x 
            x  Fe           3         0.034163   0.664191   0.536141   x 
            x  Fe           4         0.664196   0.034160   0.036186   x 
            x  Fe           5         0.399122   0.036113   0.710916   x 
            x  Fe           6         0.036081   0.399189   0.210916   x 
            xxxxxxxxxxxxxxxxxxxxxxxxxxxxxxxxxxxxxxxxxxxxxxxxxxxxxxxxxxxx


                         No user defined ionic velocities

                           -------------------------------
                                   Details of Species
                           -------------------------------

                               Mass of species in AMU
                                    Li    6.9410000
                                    O   15.9994000
                                    V   50.9415000
                                    Fe   55.8450000

                          Electric Quadrupole Moment (Barn)
                                    Li   -0.0401000 Isotope   7
                                    O   -0.0255800 Isotope  17
                                    V   -0.0520000 Isotope  51
                                    Fe    0.1600000 Isotope  57
         xxxxxxxxxxxxxxxxxxxxxxxxxxxxxxxxxxxxxxxxxxxxxxxxxxxxxxxxxxxxxxxxxxxxxx
         |  Element    Atom         Initial            Initial magnetic       |
         |            Number    spin polarization        moment (uB)     Fix? |
         |--------------------------------------------------------------------|
         | Li             1         0.000000              0.000       F       |
         | Li             2         0.000000              0.000       F       |
         | Li             3         0.000000              0.000       F       |
         | Li             4         0.000000              0.000       F       |
         | Li             5         0.000000              0.000       F       |
         | Li             6         0.000000              0.000       F       |
         | Li             7         0.000000              0.000       F       |
         | Li             8         0.000000              0.000       F       |
         | Li             9         0.000000              0.000       F       |
         | Li            10         0.000000              0.000       F       |
         | O              1         0.000000              0.000       F       |
         | O              2         0.000000              0.000       F       |
         | O              3         0.000000              0.000       F       |
         | O              4         0.000000              0.000       F       |
         | O              5         0.000000              0.000       F       |
         | O              6         0.000000              0.000       F       |
         | O              7         0.000000              0.000       F       |
         | O              8         0.000000              0.000       F       |
         | O              9         0.000000              0.000       F       |
         | O             10         0.000000              0.000       F       |
         | O             11         0.000000              0.000       F       |
         | O             12         0.000000              0.000       F       |
         | O             13         0.000000              0.000       F       |
         | O             14         0.000000              0.000       F       |
         | O             15         0.000000              0.000       F       |
         | O             16         0.000000              0.000       F       |
         | O             17         0.000000              0.000       F       |
         | O             18         0.000000              0.000       F       |
         | O             19         0.000000              0.000       F       |
         | O             20         0.000000              0.000       F       |
         | O             21         0.000000              0.000       F       |
         | O             22         0.000000              0.000       F       |
         | O             23         0.000000              0.000       F       |
         | O             24         0.000000              0.000       F       |
         | O             25         0.000000              0.000       F       |
         | O             26         0.000000              0.000       F       |
         | O             27         0.000000              0.000       F       |
         | O             28         0.000000              0.000       F       |
         | O             29         0.000000              0.000       F       |
         | O             30         0.000000              0.000       F       |
         | O             31         0.000000              0.000       F       |
         | O             32         0.000000              0.000       F       |
         | O             33         0.000000              0.000       F       |
         | O             34         0.000000              0.000       F       |
         | O             35         0.000000              0.000       F       |
         | O             36         0.000000              0.000       F       |
         | O             37         0.000000              0.000       F       |
         | O             38         0.000000              0.000       F       |
         | O             39         0.000000              0.000       F       |
         | O             40         0.000000              0.000       F       |
         | O             41         0.000000              0.000       F       |
         | O             42         0.000000              0.000       F       |
         | V              1         0.076923              1.000       F       |
         | V              2         0.076923              1.000       F       |
         | V              3         0.076923              1.000       F       |
         | V              4         0.076923              1.000       F       |
         | V              5         0.076923              1.000       F       |
         | V              6         0.076923              1.000       F       |
         | V              7         0.076923              1.000       F       |
         | V              8         0.076923              1.000       F       |
         | V              9         0.076923              1.000       F       |
         | V             10         0.076923              1.000       F       |
         | V             11         0.076923              1.000       F       |
         | V             12         0.076923              1.000       F       |
         | Fe             1         0.562500              4.500       F       |
         | Fe             2         0.562500              4.500       F       |
         | Fe             3         0.562500              4.500       F       |
         | Fe             4         0.562500              4.500       F       |
         | Fe             5         0.562500              4.500       F       |
         | Fe             6         0.562500              4.500       F       |
         xxxxxxxxxxxxxxxxxxxxxxxxxxxxxxxxxxxxxxxxxxxxxxxxxxxxxxxxxxxxxxxxxxxxxx



         Quantisation axis:    0.00000   0.00000   1.00000

         Units for Hubbard U values are eV
         xxxxxxxxxxxxxxxxxxxxxxxxxxxxxxxxxxxxxxxxxxxxxxxxxxxxxxxxxxxxxxxxxxxx
         |  Element     Atom     Hubbard U   values by orbital type         |
         |             Number      s          p          d          f       |
         |------------------------------------------------------------------|
         |Li            1         0.00000    0.00000    0.00000    0.00000  |
         |Li            2         0.00000    0.00000    0.00000    0.00000  |
         |Li            3         0.00000    0.00000    0.00000    0.00000  |
         |Li            4         0.00000    0.00000    0.00000    0.00000  |
         |Li            5         0.00000    0.00000    0.00000    0.00000  |
         |Li            6         0.00000    0.00000    0.00000    0.00000  |
         |Li            7         0.00000    0.00000    0.00000    0.00000  |
         |Li            8         0.00000    0.00000    0.00000    0.00000  |
         |Li            9         0.00000    0.00000    0.00000    0.00000  |
         |Li           10         0.00000    0.00000    0.00000    0.00000  |
         |O             1         0.00000    0.00000    0.00000    0.00000  |
         |O             2         0.00000    0.00000    0.00000    0.00000  |
         |O             3         0.00000    0.00000    0.00000    0.00000  |
         |O             4         0.00000    0.00000    0.00000    0.00000  |
         |O             5         0.00000    0.00000    0.00000    0.00000  |
         |O             6         0.00000    0.00000    0.00000    0.00000  |
         |O             7         0.00000    0.00000    0.00000    0.00000  |
         |O             8         0.00000    0.00000    0.00000    0.00000  |
         |O             9         0.00000    0.00000    0.00000    0.00000  |
         |O            10         0.00000    0.00000    0.00000    0.00000  |
         |O            11         0.00000    0.00000    0.00000    0.00000  |
         |O            12         0.00000    0.00000    0.00000    0.00000  |
         |O            13         0.00000    0.00000    0.00000    0.00000  |
         |O            14         0.00000    0.00000    0.00000    0.00000  |
         |O            15         0.00000    0.00000    0.00000    0.00000  |
         |O            16         0.00000    0.00000    0.00000    0.00000  |
         |O            17         0.00000    0.00000    0.00000    0.00000  |
         |O            18         0.00000    0.00000    0.00000    0.00000  |
         |O            19         0.00000    0.00000    0.00000    0.00000  |
         |O            20         0.00000    0.00000    0.00000    0.00000  |
         |O            21         0.00000    0.00000    0.00000    0.00000  |
         |O            22         0.00000    0.00000    0.00000    0.00000  |
         |O            23         0.00000    0.00000    0.00000    0.00000  |
         |O            24         0.00000    0.00000    0.00000    0.00000  |
         |O            25         0.00000    0.00000    0.00000    0.00000  |
         |O            26         0.00000    0.00000    0.00000    0.00000  |
         |O            27         0.00000    0.00000    0.00000    0.00000  |
         |O            28         0.00000    0.00000    0.00000    0.00000  |
         |O            29         0.00000    0.00000    0.00000    0.00000  |
         |O            30         0.00000    0.00000    0.00000    0.00000  |
         |O            31         0.00000    0.00000    0.00000    0.00000  |
         |O            32         0.00000    0.00000    0.00000    0.00000  |
         |O            33         0.00000    0.00000    0.00000    0.00000  |
         |O            34         0.00000    0.00000    0.00000    0.00000  |
         |O            35         0.00000    0.00000    0.00000    0.00000  |
         |O            36         0.00000    0.00000    0.00000    0.00000  |
         |O            37         0.00000    0.00000    0.00000    0.00000  |
         |O            38         0.00000    0.00000    0.00000    0.00000  |
         |O            39         0.00000    0.00000    0.00000    0.00000  |
         |O            40         0.00000    0.00000    0.00000    0.00000  |
         |O            41         0.00000    0.00000    0.00000    0.00000  |
         |O            42         0.00000    0.00000    0.00000    0.00000  |
         |V             1         0.00000    0.00000    3.25000    0.00000  |
         |V             2         0.00000    0.00000    3.25000    0.00000  |
         |V             3         0.00000    0.00000    3.25000    0.00000  |
         |V             4         0.00000    0.00000    3.25000    0.00000  |
         |V             5         0.00000    0.00000    3.25000    0.00000  |
         |V             6         0.00000    0.00000    3.25000    0.00000  |
         |V             7         0.00000    0.00000    3.25000    0.00000  |
         |V             8         0.00000    0.00000    3.25000    0.00000  |
         |V             9         0.00000    0.00000    3.25000    0.00000  |
         |V            10         0.00000    0.00000    3.25000    0.00000  |
         |V            11         0.00000    0.00000    3.25000    0.00000  |
         |V            12         0.00000    0.00000    3.25000    0.00000  |
         |Fe            1         0.00000    0.00000    5.30000    0.00000  |
         |Fe            2         0.00000    0.00000    5.30000    0.00000  |
         |Fe            3         0.00000    0.00000    5.30000    0.00000  |
         |Fe            4         0.00000    0.00000    5.30000    0.00000  |
         |Fe            5         0.00000    0.00000    5.30000    0.00000  |
         |Fe            6         0.00000    0.00000    5.30000    0.00000  |
         xxxxxxxxxxxxxxxxxxxxxxxxxxxxxxxxxxxxxxxxxxxxxxxxxxxxxxxxxxxxxxxxxxxx


                          Files used for pseudopotentials:
                                    Li 1|1.0|14|16|18|10U:20(qc=7)
                                    O 2|1.1|17|20|23|20:21(qc=8)
                                    V 3|1.8|1.8|0.6|12|14|16|30U:40:31:32(qc=7)
                                    Fe 3|2.4|2.4|1.0|8|9|10|40:41:32U2U2(qc=5.5)

                           -------------------------------
                              k-Points For BZ Sampling
                           -------------------------------
                       MP grid size for SCF calculation is  3  3  2
                            with an offset of   0.000  0.000  0.000
                       Number of kpoints used =             9

                           -------------------------------
                               Symmetry and Constraints
                           -------------------------------

                      Maximum deviation from symmetry =  0.00000         ANG

                      Number of symmetry operations   =           1
                      Number of ionic constraints     =           3
                      Point group of crystal =     1: C1, 1, 1
                      Space group of crystal =     1: P1, P 1

             Set iprint > 1 for details on symmetry rotations/translations

                         Centre of mass is constrained
             Set iprint > 2 for details of linear ionic constraints

                         Number of cell constraints= 0
                         Cell constraints are:  1 2 3 4 5 6

                         External pressure/stress (GPa)
                          0.00000   0.00000   0.00000
                                    0.00000   0.00000
                                              0.00000
 
+---------------- MEMORY AND SCRATCH DISK ESTIMATES PER PROCESS --------------+
|                                                     Memory          Disk    |
| Baseline code, static data and system overhead      817.0 MB         0.0 MB |
| BLAS internal memory storage                          0.0 MB         0.0 MB |
| Model and support data                              564.7 MB         0.0 MB |
| Electronic energy minimisation requirements         725.7 MB         0.0 MB |
| Force calculation requirements                        6.4 MB         0.0 MB |
|                                               ----------------------------- |
| Approx. total storage required per process         2107.4 MB         0.0 MB |
|                                                                             |
| Requirements will fluctuate during execution and may exceed these estimates |
+-----------------------------------------------------------------------------+
Calculating approximate eigenstates for fixed initial Hamiltonian
Cut-off for approx. calculation is  375.902 eV
Resetting cut-off to  900.000 eV
Improving states further at cut-off of  900.000 eV
Calculating total energy with cut-off of  900.000 eV.

 Pseudo atomic calculation performed for Li 1s2 2s1

 Converged in 18 iterations to a total energy of -200.5098 eV

 Pseudo atomic calculation performed for O 2s2 2p4

 Converged in 24 iterations to a total energy of -432.3399 eV

 Pseudo atomic calculation performed for V 3s2 3p6 3d3 4s2

 Converged in 36 iterations to a total energy of -2065.8041 eV

 Pseudo atomic calculation performed for Fe 3d6 4s2

 Converged in 34 iterations to a total energy of -853.8318 eV
------------------------------------------------------------------------ <-- SCF
SCF loop      Energy           Fermi           Energy gain       Timer   <-- SCF
                               energy          per atom          (sec)   <-- SCF
------------------------------------------------------------------------ <-- SCF
Initial  -4.70462942E+004  6.63868798E+000                       201.10  <-- SCF
      1  -5.05171496E+004  3.69321022E+000   4.95836481E+001     826.94  <-- SCF
      2  -5.05686900E+004  3.30122128E+000   7.36291702E-001    1738.10  <-- SCF
      3  -5.05704447E+004  3.18112735E+000   2.50660601E-002    2437.70  <-- SCF
      4  -5.05705199E+004  3.17094044E+000   1.07451770E-003    2884.34  <-- SCF
      5  -5.05705256E+004  3.16885072E+000   8.20568932E-005    3272.20  <-- SCF
      6  -5.05705281E+004  3.16747139E+000   3.48539606E-005    3685.28  <-- SCF
      7  -5.05705287E+004  3.16595847E+000   9.27080498E-006    4121.70  <-- SCF
      8  -5.05705288E+004  3.16001560E+000   7.53790295E-007    4539.48  <-- SCF
      9  -5.05705289E+004  3.15892163E+000   1.51857976E-006    4978.03  <-- SCF
     10  -5.05449271E+004  3.80922040E+000  -3.65740008E-001    5449.17  <-- SCF
     11  -5.05514604E+004  3.40596407E+000   9.33327608E-002    6207.90  <-- SCF
     12  -5.05521062E+004  3.33381736E+000   9.22631713E-003    6910.77  <-- SCF
     13  -5.05521279E+004  3.33133909E+000   3.10297550E-004    7621.40  <-- SCF
     14  -5.05521307E+004  3.33273898E+000   4.04253446E-005    8380.89  <-- SCF
     15  -5.05521317E+004  3.33228922E+000   1.32242946E-005    9007.56  <-- SCF
     16  -5.05521322E+004  3.33259447E+000   8.04989710E-006    9722.88  <-- SCF
     17  -5.05521327E+004  3.33247315E+000   6.59175946E-006   10350.67  <-- SCF
     18  -5.05521331E+004  3.33280752E+000   5.13331627E-006   11125.65  <-- SCF
     19  -5.05521333E+004  3.33275110E+000   3.58806255E-006   11874.24  <-- SCF
     20  -5.05521335E+004  3.33294883E+000   3.44731852E-006   12535.40  <-- SCF
     21  -5.05521338E+004  3.33306476E+000   3.13647940E-006   13274.66  <-- SCF
     22  -5.05521340E+004  3.33327481E+000   3.83522004E-006   14038.11  <-- SCF
     23  -5.05521343E+004  3.33342689E+000   3.47758395E-006   14809.57  <-- SCF
     24  -5.05521347E+004  3.33381533E+000   5.46633933E-006   15498.55  <-- SCF
     25  -5.05521350E+004  3.33391874E+000   4.89925769E-006   16279.07  <-- SCF
     26  -5.05521354E+004  3.33418932E+000   5.99296725E-006   17062.81  <-- SCF
     27  -5.05521358E+004  3.33451029E+000   5.65154893E-006   17833.07  <-- SCF
     28  -5.05521363E+004  3.33479580E+000   7.09361013E-006   18477.11  <-- SCF
     29  -5.05521368E+004  3.33502388E+000   7.14150081E-006   19187.43  <-- SCF
     30  -5.05521376E+004  3.33546546E+000   1.06880316E-005   19897.50  <-- SCF
     31  -5.05521384E+004  3.33588104E+000   1.15909066E-005   20554.47  <-- SCF
     32  -5.05521392E+004  3.33604957E+000   1.20664876E-005   21310.08  <-- SCF
     33  -5.05521403E+004  3.33659359E+000   1.55772033E-005   21958.98  <-- SCF
     34  -5.05521417E+004  3.33727217E+000   1.93373941E-005   22737.00  <-- SCF
     35  -5.05521428E+004  3.33745800E+000   1.57824102E-005   23386.52  <-- SCF
     36  -5.05521442E+004  3.33789865E+000   2.04845277E-005   24104.20  <-- SCF
     37  -5.05521464E+004  3.33835445E+000   3.07531213E-005   24822.78  <-- SCF
     38  -5.05521486E+004  3.33914920E+000   3.24035394E-005   25513.02  <-- SCF
     39  -5.05521509E+004  3.33960659E+000   3.28810602E-005   26294.44  <-- SCF
     40  -5.05521539E+004  3.34026468E+000   4.24143242E-005   27008.25  <-- SCF
     41  -5.05521570E+004  3.34094665E+000   4.42657668E-005   27652.87  <-- SCF
     42  -5.05521597E+004  3.34133763E+000   3.93838369E-005   28414.92  <-- SCF
     43  -5.05521623E+004  3.34182457E+000   3.60438726E-005   29123.62  <-- SCF
     44  -5.05521652E+004  3.34244158E+000   4.21025190E-005   29803.20  <-- SCF
     45  -5.05521675E+004  3.34265318E+000   3.24386267E-005   30512.12  <-- SCF
     46  -5.05521700E+004  3.34327405E+000   3.59990198E-005   31183.83  <-- SCF
     47  -5.05521717E+004  3.34342381E+000   2.40715446E-005   31923.44  <-- SCF
     48  -5.05521731E+004  3.34390184E+000   2.06227625E-005   32538.81  <-- SCF
     49  -5.05521742E+004  3.34386040E+000   1.57661274E-005   33293.88  <-- SCF
     50  -5.05521752E+004  3.34426653E+000   1.40415414E-005   33979.28  <-- SCF
     51  -5.05521760E+004  3.34437078E+000   1.16177727E-005   34649.16  <-- SCF
     52  -5.05521765E+004  3.34460910E+000   6.71479692E-006   35328.15  <-- SCF
     53  -5.05521768E+004  3.34464964E+000   4.30216703E-006   35983.52  <-- SCF
     54  -5.05521770E+004  3.34476899E+000   3.21931416E-006   36656.74  <-- SCF
     55  -5.05521772E+004  3.34478485E+000   1.97243960E-006   37350.68  <-- SCF
     56  -5.05521773E+004  3.34486183E+000   1.39359556E-006   38085.63  <-- SCF
     57  -5.05521773E+004  3.34491430E+000   1.08012186E-006   38728.48  <-- SCF
     58  -5.05521774E+004  3.34494337E+000   5.50179667E-007   39372.35  <-- SCF
     59  -5.05521774E+004  3.34498716E+000   5.78985813E-007   39982.81  <-- SCF
     60  -5.05521774E+004  3.34501585E+000   3.28824461E-007   40667.44  <-- SCF
------------------------------------------------------------------------ <-- SCF
 
Integrated Spin Density     =     29.9999     hbar/2
Integrated |Spin Density|   =     30.7018     hbar/2
 

     Hubbard U occupation numbers
     ----------------------------
Species   Ion   l  spin               occupancies
==================================================================
  V        1    2   up:   0.42  0.43  0.49  0.51  0.51
                    dn:   0.39  0.42  0.47  0.49  0.50
  V        2    2   up:   0.42  0.43  0.49  0.51  0.51
                    dn:   0.39  0.42  0.47  0.49  0.50
  V        3    2   up:   0.37  0.41  0.45  0.50  0.99
                    dn:   0.13  0.30  0.36  0.39  0.44
  V        4    2   up:   0.37  0.41  0.45  0.50  0.99
                    dn:   0.13  0.30  0.36  0.39  0.44
  V        5    2   up:   0.42  0.44  0.48  0.52  0.52
                    dn:   0.38  0.41  0.46  0.49  0.50
  V        6    2   up:   0.42  0.44  0.48  0.52  0.52
                    dn:   0.38  0.41  0.46  0.49  0.50
  V        7    2   up:   0.33  0.42  0.51  0.53  0.54
                    dn:   0.29  0.40  0.49  0.51  0.52
  V        8    2   up:   0.33  0.42  0.51  0.53  0.54
                    dn:   0.29  0.40  0.49  0.51  0.52
  V        9    2   up:   0.43  0.44  0.48  0.52  0.52
                    dn:   0.38  0.43  0.46  0.49  0.50
  V       10    2   up:   0.43  0.44  0.48  0.52  0.52
                    dn:   0.38  0.43  0.46  0.49  0.50
  V       11    2   up:   0.41  0.44  0.50  0.51  0.53
                    dn:   0.38  0.41  0.48  0.49  0.51
  V       12    2   up:   0.41  0.44  0.50  0.51  0.53
                    dn:   0.38  0.41  0.48  0.49  0.51
  Fe       1    2   up:   0.99  0.99  1.00  1.00  1.00
                    dn:   0.09  0.10  0.13  0.37  0.41
  Fe       2    2   up:   0.99  0.99  1.00  1.00  1.00
                    dn:   0.09  0.10  0.13  0.37  0.41
  Fe       3    2   up:   0.99  0.99  1.00  1.00  1.00
                    dn:   0.10  0.11  0.11  0.38  0.42
  Fe       4    2   up:   0.99  0.99  1.00  1.00  1.00
                    dn:   0.10  0.11  0.11  0.38  0.42
  Fe       5    2   up:   0.99  0.99  1.00  1.00  1.00
                    dn:   0.04  0.05  0.13  0.15  0.98
  Fe       6    2   up:   0.99  0.99  1.00  1.00  1.00
                    dn:   0.04  0.05  0.13  0.15  0.98
==================================================================

Final energy, E             =  -50552.17741562     eV
Final free energy (E-TS)    =  -50552.17744907     eV
(energies not corrected for finite basis set)
 
NB est. 0K energy (E-0.5TS)      =  -50552.17743234     eV
 

Writing analysis data to ml_dos.castep_bin

Writing model to ml_dos.check
 
+---------------- MEMORY AND SCRATCH DISK ESTIMATES PER PROCESS --------------+
|                                                     Memory          Disk    |
|                                               ----------------------------- |
| Approx. total storage required per process         1628.4 MB         0.0 MB |
|                                                                             |
| Requirements will fluctuate during execution and may exceed these estimates |
+-----------------------------------------------------------------------------+
 
  =====================================================================
  +                                                                   +
  +                 Calculation of Spectral Properties                +
  +                                                                   +
  + Calculation re-parallelised over 36 processes.                    +
  + There are 9 k-points distributed across 9 k-point groups.         +
  + Data distributed by G-vector(4-way), k-point(9-way), band(1-way)  +
  + Data distributed by G-vector(4-way), k-point(9-way)               +
  +                                                                   +
  =====================================================================

 Pseudo atomic calculation performed for Li 1s2 2s1

 Converged in 18 iterations to a total energy of -200.5098 eV

 Pseudo atomic calculation performed for O 2s2 2p4

 Converged in 24 iterations to a total energy of -432.3399 eV

 Pseudo atomic calculation performed for V 3s2 3p6 3d3 4s2

 Converged in 36 iterations to a total energy of -2065.8041 eV

 Pseudo atomic calculation performed for Fe 3d6 4s2

 Converged in 34 iterations to a total energy of -853.8318 eV

 Pseudo atomic calculation performed for Li 1s2 2s1

 Converged in 18 iterations to a total energy of -200.5098 eV

 Pseudo atomic calculation performed for O 2s2 2p4

 Converged in 24 iterations to a total energy of -432.3399 eV

 Pseudo atomic calculation performed for V 3s2 3p6 3d3 4s2

 Converged in 36 iterations to a total energy of -2065.8041 eV

 Pseudo atomic calculation performed for Fe 3d6 4s2

 Converged in 34 iterations to a total energy of -853.8318 eV
  Starting k-point:        1 of        1 Time:      0.00 sec  |<-- SPEC

 Pseudo atomic calculation performed for Li 1s2 2s1

 Converged in 18 iterations to a total energy of -200.5098 eV

 Pseudo atomic calculation performed for O 2s2 2p4

 Converged in 24 iterations to a total energy of -432.3399 eV

 Pseudo atomic calculation performed for V 3s2 3p6 3d3 4s2

 Converged in 36 iterations to a total energy of -2065.8041 eV

 Pseudo atomic calculation performed for Fe 3d6 4s2

 Converged in 34 iterations to a total energy of -853.8318 eV
  Starting k-point:        1 of        1 Time:    317.28 sec  |<-- SPEC

 Pseudo atomic calculation performed for Li 1s2 2s1

 Converged in 18 iterations to a total energy of -200.5098 eV

 Pseudo atomic calculation performed for O 2s2 2p4

 Converged in 24 iterations to a total energy of -432.3399 eV

 Pseudo atomic calculation performed for V 3s2 3p6 3d3 4s2

 Converged in 36 iterations to a total energy of -2065.8041 eV

 Pseudo atomic calculation performed for Fe 3d6 4s2

 Converged in 34 iterations to a total energy of -853.8318 eV
  Check-pointing spectral run                                 |<-- SPEC
  Total time to compute matrix elements            636.68 sec |<-- SPEC
  
  + Calculation re-parallelised over 40 processes.                    +
  + Data distributed by G-vector(40-way)                              +

 Pseudo atomic calculation performed for Li 1s2 2s1

 Converged in 18 iterations to a total energy of -200.5098 eV

 Pseudo atomic calculation performed for O 2s2 2p4

 Converged in 24 iterations to a total energy of -432.3399 eV

 Pseudo atomic calculation performed for V 3s2 3p6 3d3 4s2

 Converged in 36 iterations to a total energy of -2065.8041 eV

 Pseudo atomic calculation performed for Fe 3d6 4s2

 Converged in 34 iterations to a total energy of -853.8318 eV

 ************************** Forces **************************
 *                                                          *
 *               Cartesian components (eV/A)                *
 * -------------------------------------------------------- *
 *                         x            y            z      *
 *                                                          *
 * Li              1     -0.05435     -0.01983     -0.05468 *
 * Li              2     -0.04329     -0.03955     -0.05432 *
 * Li              3      0.04041      0.00448      0.01079 *
 * Li              4      0.02299      0.03154      0.01006 *
 * Li              5     -0.03006     -0.00596      0.02678 *
 * Li              6     -0.01968     -0.02528      0.02436 *
 * Li              7      0.04920      0.04620     -0.00545 *
 * Li              8      0.06418      0.02172     -0.00802 *
 * Li              9     -0.02995     -0.02311     -0.05267 *
 * Li             10     -0.03495     -0.01752     -0.05053 *
 * O               1      0.31167      0.59473      0.12621 *
 * O               2      0.66461      0.00355      0.12648 *
 * O               3      0.78370      0.02818      0.08588 *
 * O               4      0.38104      0.67560      0.07970 *
 * O               5      0.00958     -0.00583      0.47905 *
 * O               6     -0.00210      0.01229      0.47964 *
 * O               7      0.04850     -0.15041      0.57514 *
 * O               8     -0.10936      0.11167      0.55805 *
 * O               9      0.18778     -0.60781     -0.27395 *
 * O              10     -0.43319      0.42977     -0.26526 *
 * O              11      0.26463     -0.87221     -0.41180 *
 * O              12     -0.64374      0.63449     -0.41017 *
 * O              13     -0.16575      0.08667      0.10636 *
 * O              14      0.00077     -0.18870      0.10584 *
 * O              15     -0.00487      0.49082      0.27918 *
 * O              16      0.42658     -0.23280      0.27624 *
 * O              17      0.20215      0.18292      0.11072 *
 * O              18      0.25028      0.09467      0.11387 *
 * O              19      0.65447     -0.79749      0.49482 *
 * O              20     -0.40041      0.93963      0.48875 *
 * O              21      0.24327     -0.67022     -0.34199 *
 * O              22     -0.47989      0.53073     -0.33959 *
 * O              23     -0.09967      0.18700     -0.04773 *
 * O              24      0.11466     -0.17839     -0.04661 *
 * O              25      0.03207      0.22352     -0.15342 *
 * O              26      0.20870     -0.07812     -0.15472 *
 * O              27     -0.76998      0.04696     -0.18705 *
 * O              28     -0.31136     -0.70141     -0.18836 *
 * O              29     -0.02324      0.07986     -0.54639 *
 * O              30      0.06028     -0.05380     -0.54940 *
 * O              31      0.56875     -0.52810      0.32089 *
 * O              32     -0.21400      0.76019      0.32816 *
 * O              33     -0.18653      0.67472      0.27163 *
 * O              34      0.51047     -0.47940      0.26785 *
 * O              35     -0.25421     -0.14076     -0.42239 *
 * O              36     -0.24204     -0.16034     -0.41501 *
 * O              37     -0.07815      0.01587     -0.53195 *
 * O              38     -0.02848     -0.07613     -0.53772 *
 * O              39     -0.70769      0.01124     -0.10170 *
 * O              40     -0.32237     -0.63943     -0.09888 *
 * O              41     -0.42688      0.18057     -0.23099 *
 * O              42     -0.03902     -0.46956     -0.23124 *
 * V               1     -0.19895     -0.16237     -0.17066 *
 * V               2     -0.24509     -0.09096     -0.16211 *
 * V               3     -0.49019      0.72788     -0.33502 *
 * V               4      0.42342     -0.75772     -0.34000 *
 * V               5     -0.26165      0.08928      0.18785 *
 * V               6     -0.01364     -0.27531      0.19433 *
 * V               7     -0.41437      0.27845      0.36905 *
 * V               8      0.05987     -0.50371      0.38266 *
 * V               9      0.07806      0.37832      0.21121 *
 * V              10      0.37538     -0.08908      0.19400 *
 * V              11      0.32955      0.22892      0.08521 *
 * V              12      0.34275      0.20613      0.09687 *
 * Fe              1     -0.16486     -0.12316     -0.01944 *
 * Fe              2     -0.18613     -0.09355     -0.02804 *
 * Fe              3      0.13400     -0.01273      0.14450 *
 * Fe              4      0.04657      0.11941      0.13824 *
 * Fe              5      0.02240      0.23440      0.00960 *
 * Fe              6      0.21734     -0.09163      0.00731 *
 *                                                          *
 ************************************************************

 Pseudo atomic calculation performed for Li 1s2 2s1

 Converged in 18 iterations to a total energy of -200.5098 eV

 Pseudo atomic calculation performed for O 2s2 2p4

 Converged in 24 iterations to a total energy of -432.3399 eV

 Pseudo atomic calculation performed for V 3s2 3p6 3d3 4s2

 Converged in 36 iterations to a total energy of -2065.8041 eV

 Pseudo atomic calculation performed for Fe 3d6 4s2

 Converged in 34 iterations to a total energy of -853.8318 eV
Charge spilling parameter for spin component 1 = 0.16%
Charge spilling parameter for spin component 2 = 0.15%

                   Orbital Populations                  
  ---------------------------------------------------------------
     Ion    Atom   Orbital              Up        Down      Spin
  ---------------------------------------------------------------
     Li     1      S                    1.001     1.001     0.000
     Li     1      S                    0.003     0.004    -0.001
     Li     1      Px                   0.046     0.048    -0.002
     Li     1      Py                   0.051     0.051    -0.000
     Li     1      Pz                   0.038     0.038    -0.000
     Li     2      S                    1.001     1.001     0.000
     Li     2      S                    0.003     0.004    -0.001
     Li     2      Px                   0.052     0.050     0.001
     Li     2      Py                   0.046     0.049    -0.003
     Li     2      Pz                   0.038     0.038    -0.000
     Li     3      S                    1.001     1.001     0.000
     Li     3      S                   -0.000     0.006    -0.006
     Li     3      Px                   0.026     0.029    -0.003
     Li     3      Py                   0.031     0.036    -0.005
     Li     3      Pz                   0.037     0.042    -0.005
     Li     4      S                    1.001     1.001     0.000
     Li     4      S                    0.000     0.006    -0.006
     Li     4      Px                   0.017     0.021    -0.004
     Li     4      Py                   0.040     0.044    -0.004
     Li     4      Pz                   0.037     0.042    -0.005
     Li     5      S                    1.000     1.000     0.000
     Li     5      S                    0.002     0.008    -0.006
     Li     5      Px                   0.026     0.030    -0.004
     Li     5      Py                   0.033     0.037    -0.004
     Li     5      Pz                   0.041     0.043    -0.002
     Li     6      S                    1.000     1.000     0.000
     Li     6      S                    0.002     0.008    -0.006
     Li     6      Px                   0.018     0.022    -0.003
     Li     6      Py                   0.041     0.046    -0.005
     Li     6      Pz                   0.041     0.043    -0.002
     Li     7      S                    1.001     1.001     0.000
     Li     7      S                   -0.002     0.005    -0.006
     Li     7      Px                   0.071     0.072    -0.001
     Li     7      Py                   0.040     0.043    -0.002
     Li     7      Pz                   0.037     0.043    -0.006
     Li     8      S                    1.001     1.001     0.000
     Li     8      S                   -0.002     0.005    -0.006
     Li     8      Px                   0.051     0.054    -0.004
     Li     8      Py                   0.060     0.060     0.000
     Li     8      Pz                   0.037     0.043    -0.006
     Li     9      S                    1.002     1.002     0.000
     Li     9      S                   -0.029    -0.012    -0.017
     Li     9      Px                   0.061     0.071    -0.010
     Li     9      Py                   0.039     0.045    -0.007
     Li     9      Pz                   0.032     0.044    -0.012
     Li    10      S                    1.002     1.002     0.000
     Li    10      S                   -0.029    -0.012    -0.017
     Li    10      Px                   0.039     0.050    -0.011
     Li    10      Py                   0.060     0.066    -0.006
     Li    10      Pz                   0.032     0.044    -0.012
      O     1      S                    0.940     0.932     0.008
      O     1      Px                   0.824     0.791     0.033
      O     1      Py                   0.776     0.760     0.015
      O     1      Pz                   0.831     0.814     0.018
      O     2      S                    0.940     0.932     0.008
      O     2      Px                   0.766     0.738     0.029
      O     2      Py                   0.834     0.814     0.020
      O     2      Pz                   0.831     0.814     0.018
      O     3      S                    0.939     0.936     0.003
      O     3      Px                   0.754     0.758    -0.004
      O     3      Py                   0.816     0.814     0.001
      O     3      Pz                   0.820     0.818     0.002
      O     4      S                    0.939     0.936     0.003
      O     4      Px                   0.803     0.805    -0.002
      O     4      Py                   0.767     0.767    -0.001
      O     4      Pz                   0.820     0.818     0.002
      O     5      S                    0.938     0.936     0.002
      O     5      Px                   0.818     0.818     0.000
      O     5      Py                   0.819     0.823    -0.003
      O     5      Pz                   0.759     0.761    -0.001
      O     6      S                    0.938     0.936     0.002
      O     6      Px                   0.817     0.821    -0.004
      O     6      Py                   0.821     0.820     0.000
      O     6      Pz                   0.759     0.761    -0.001
      O     7      S                    0.935     0.928     0.008
      O     7      Px                   0.840     0.810     0.030
      O     7      Py                   0.830     0.806     0.025
      O     7      Pz                   0.768     0.756     0.013
      O     8      S                    0.935     0.928     0.008
      O     8      Px                   0.838     0.825     0.013
      O     8      Py                   0.832     0.791     0.042
      O     8      Pz                   0.768     0.756     0.013
      O     9      S                    0.935     0.925     0.009
      O     9      Px                   0.832     0.822     0.009
      O     9      Py                   0.788     0.763     0.025
      O     9      Pz                   0.830     0.800     0.030
      O    10      S                    0.935     0.925     0.009
      O    10      Px                   0.815     0.788     0.027
      O    10      Py                   0.805     0.797     0.007
      O    10      Pz                   0.830     0.800     0.030
      O    11      S                    0.939     0.928     0.011
      O    11      Px                   0.820     0.809     0.011
      O    11      Py                   0.775     0.754     0.022
      O    11      Pz                   0.812     0.790     0.022
      O    12      S                    0.939     0.928     0.011
      O    12      Px                   0.798     0.778     0.020
      O    12      Py                   0.797     0.784     0.013
      O    12      Pz                   0.812     0.790     0.022
      O    13      S                    0.927     0.927    -0.000
      O    13      Px                   0.771     0.771    -0.001
      O    13      Py                   0.818     0.818     0.000
      O    13      Pz                   0.808     0.810    -0.001
      O    14      S                    0.927     0.927    -0.000
      O    14      Px                   0.789     0.790    -0.001
      O    14      Py                   0.800     0.800     0.000
      O    14      Pz                   0.808     0.809    -0.001
      O    15      S                    0.938     0.927     0.011
      O    15      Px                   0.870     0.791     0.078
      O    15      Py                   0.809     0.788     0.021
      O    15      Pz                   0.856     0.804     0.052
      O    16      S                    0.938     0.927     0.011
      O    16      Px                   0.813     0.764     0.050
      O    16      Py                   0.865     0.816     0.049
      O    16      Pz                   0.856     0.804     0.052
      O    17      S                    0.938     0.931     0.007
      O    17      Px                   0.828     0.825     0.003
      O    17      Py                   0.852     0.790     0.062
      O    17      Pz                   0.781     0.772     0.010
      O    18      S                    0.938     0.931     0.007
      O    18      Px                   0.827     0.781     0.046
      O    18      Py                   0.853     0.834     0.019
      O    18      Pz                   0.781     0.772     0.010
      O    19      S                    0.937     0.940    -0.003
      O    19      Px                   0.763     0.812    -0.049
      O    19      Py                   0.754     0.795    -0.041
      O    19      Pz                   0.776     0.820    -0.044
      O    20      S                    0.937     0.940    -0.003
      O    20      Px                   0.774     0.815    -0.041
      O    20      Py                   0.743     0.792    -0.049
      O    20      Pz                   0.776     0.820    -0.044
      O    21      S                    0.941     0.937     0.004
      O    21      Px                   0.789     0.793    -0.004
      O    21      Py                   0.754     0.757    -0.004
      O    21      Pz                   0.784     0.794    -0.010
      O    22      S                    0.941     0.937     0.004
      O    22      Px                   0.773     0.776    -0.003
      O    22      Py                   0.770     0.775    -0.005
      O    22      Pz                   0.784     0.794    -0.010
      O    23      S                    0.927     0.927    -0.001
      O    23      Px                   0.773     0.775    -0.002
      O    23      Py                   0.804     0.804     0.001
      O    23      Pz                   0.813     0.813     0.000
      O    24      S                    0.927     0.927    -0.001
      O    24      Px                   0.774     0.776    -0.002
      O    24      Py                   0.803     0.803     0.000
      O    24      Pz                   0.813     0.813     0.000
      O    25      S                    0.929     0.928     0.001
      O    25      Px                   0.793     0.803    -0.009
      O    25      Py                   0.792     0.796    -0.004
      O    25      Pz                   0.823     0.827    -0.004
      O    26      S                    0.929     0.928     0.001
      O    26      Px                   0.769     0.773    -0.005
      O    26      Py                   0.817     0.825    -0.008
      O    26      Pz                   0.823     0.827    -0.004
      O    27      S                    0.938     0.938    -0.000
      O    27      Px                   0.755     0.756    -0.001
      O    27      Py                   0.809     0.805     0.004
      O    27      Pz                   0.814     0.813     0.001
      O    28      S                    0.938     0.938    -0.000
      O    28      Px                   0.804     0.800     0.004
      O    28      Py                   0.761     0.761    -0.000
      O    28      Pz                   0.814     0.813     0.001
      O    29      S                    0.937     0.930     0.006
      O    29      Px                   0.829     0.805     0.024
      O    29      Py                   0.826     0.802     0.024
      O    29      Pz                   0.763     0.752     0.010
      O    30      S                    0.937     0.930     0.006
      O    30      Px                   0.827     0.818     0.009
      O    30      Py                   0.827     0.789     0.038
      O    30      Pz                   0.762     0.752     0.010
      O    31      S                    0.940     0.929     0.011
      O    31      Px                   0.797     0.779     0.018
      O    31      Py                   0.798     0.786     0.012
      O    31      Pz                   0.813     0.786     0.028
      O    32      S                    0.940     0.929     0.011
      O    32      Px                   0.820     0.809     0.011
      O    32      Py                   0.775     0.756     0.019
      O    32      Pz                   0.813     0.786     0.028
      O    33      S                    0.935     0.925     0.009
      O    33      Px                   0.829     0.820     0.009
      O    33      Py                   0.783     0.762     0.021
      O    33      Pz                   0.826     0.797     0.029
      O    34      S                    0.935     0.926     0.009
      O    34      Px                   0.811     0.790     0.021
      O    34      Py                   0.801     0.793     0.008
      O    34      Pz                   0.826     0.797     0.029
      O    35      S                    0.938     0.930     0.008
      O    35      Px                   0.840     0.761     0.080
      O    35      Py                   0.855     0.828     0.027
      O    35      Pz                   0.794     0.785     0.009
      O    36      S                    0.938     0.930     0.008
      O    36      Px                   0.829     0.813     0.016
      O    36      Py                   0.867     0.775     0.091
      O    36      Pz                   0.794     0.785     0.009
      O    37      S                    0.939     0.937     0.002
      O    37      Px                   0.807     0.818    -0.011
      O    37      Py                   0.834     0.828     0.005
      O    37      Pz                   0.759     0.760    -0.001
      O    38      S                    0.939     0.937     0.002
      O    38      Px                   0.823     0.822     0.000
      O    38      Py                   0.818     0.824    -0.006
      O    38      Pz                   0.759     0.760    -0.001
      O    39      S                    0.939     0.932     0.007
      O    39      Px                   0.764     0.739     0.025
      O    39      Py                   0.831     0.815     0.016
      O    39      Pz                   0.832     0.816     0.017
      O    40      S                    0.939     0.932     0.007
      O    40      Px                   0.823     0.797     0.026
      O    40      Py                   0.772     0.758     0.015
      O    40      Pz                   0.833     0.816     0.017
      O    41      S                    0.941     0.934     0.007
      O    41      Px                   0.785     0.742     0.044
      O    41      Py                   0.835     0.806     0.029
      O    41      Pz                   0.830     0.799     0.032
      O    42      S                    0.941     0.934     0.007
      O    42      Px                   0.838     0.790     0.048
      O    42      Py                   0.783     0.758     0.025
      O    42      Pz                   0.830     0.799     0.032
      V     1      S                    0.995     0.995     0.000
      V     1      Px                   0.994     0.994    -0.000
      V     1      Py                   0.995     0.995     0.000
      V     1      Pz                   0.995     0.995     0.000
      V     1      Dzz                  0.352     0.325     0.027
      V     1      Dzy                  0.309     0.293     0.016
      V     1      Dzx                  0.332     0.305     0.026
      V     1      Dxx-yy               0.330     0.318     0.012
      V     1      Dxy                  0.327     0.301     0.026
      V     1      S                    0.106     0.104     0.002
      V     1      Px                   0.088     0.085     0.003
      V     1      Py                   0.104     0.102     0.002
      V     1      Pz                   0.076     0.075     0.001
      V     2      S                    0.995     0.995     0.000
      V     2      Px                   0.995     0.995    -0.000
      V     2      Py                   0.994     0.994     0.000
      V     2      Pz                   0.995     0.995     0.000
      V     2      Dzz                  0.352     0.325     0.027
      V     2      Dzy                  0.328     0.295     0.032
      V     2      Dzx                  0.313     0.303     0.010
      V     2      Dxx-yy               0.319     0.309     0.010
      V     2      Dxy                  0.338     0.310     0.027
      V     2      S                    0.106     0.104     0.002
      V     2      Px                   0.100     0.101    -0.000
      V     2      Py                   0.091     0.086     0.005
      V     2      Pz                   0.076     0.075     0.001
      V     3      S                    0.997     0.998    -0.001
      V     3      Px                   0.997     0.998    -0.000
      V     3      Py                   0.996     0.997    -0.000
      V     3      Pz                   0.997     0.998    -0.000
      V     3      Dzz                  0.566     0.161     0.405
      V     3      Dzy                  0.312     0.231     0.081
      V     3      Dzx                  0.447     0.206     0.241
      V     3      Dxx-yy               0.289     0.221     0.068
      V     3      Dxy                  0.556     0.182     0.374
      V     3      S                    0.144     0.125     0.019
      V     3      Px                   0.087     0.079     0.008
      V     3      Py                   0.067     0.062     0.005
      V     3      Pz                   0.080     0.073     0.007
      V     4      S                    0.997     0.998    -0.001
      V     4      Px                   0.998     0.998    -0.000
      V     4      Py                   0.996     0.996    -0.000
      V     4      Pz                   0.997     0.998    -0.000
      V     4      Dzz                  0.567     0.161     0.406
      V     4      Dzy                  0.480     0.218     0.262
      V     4      Dzx                  0.279     0.219     0.059
      V     4      Dxx-yy               0.391     0.180     0.211
      V     4      Dxy                  0.454     0.223     0.231
      V     4      S                    0.144     0.125     0.019
      V     4      Px                   0.069     0.062     0.007
      V     4      Py                   0.085     0.079     0.006
      V     4      Pz                   0.080     0.073     0.007
      V     5      S                    0.995     0.995    -0.000
      V     5      Px                   0.995     0.995    -0.000
      V     5      Py                   0.995     0.995     0.000
      V     5      Pz                   0.995     0.995    -0.000
      V     5      Dzz                  0.355     0.326     0.029
      V     5      Dzy                  0.326     0.299     0.028
      V     5      Dzx                  0.323     0.301     0.022
      V     5      Dxx-yy               0.328     0.309     0.019
      V     5      Dxy                  0.330     0.291     0.038
      V     5      S                    0.103     0.101     0.002
      V     5      Px                   0.087     0.087     0.001
      V     5      Py                   0.076     0.077    -0.000
      V     5      Pz                   0.085     0.082     0.003
      V     6      S                    0.995     0.995    -0.000
      V     6      Px                   0.995     0.995    -0.000
      V     6      Py                   0.995     0.995     0.000
      V     6      Pz                   0.995     0.995    -0.000
      V     6      Dzz                  0.355     0.326     0.029
      V     6      Dzy                  0.329     0.303     0.026
      V     6      Dzx                  0.321     0.296     0.024
      V     6      Dxx-yy               0.332     0.306     0.026
      V     6      Dxy                  0.325     0.294     0.031
      V     6      S                    0.103     0.101     0.002
      V     6      Px                   0.074     0.075    -0.001
      V     6      Py                   0.089     0.088     0.001
      V     6      Pz                   0.085     0.082     0.003
      V     7      S                    0.995     0.995    -0.000
      V     7      Px                   0.995     0.995    -0.000
      V     7      Py                   0.994     0.994    -0.000
[...]
              O 32 -- Fe 2                   0.33        -0.04          1.99185
              O 31 -- Fe 1                   0.33        -0.04          1.99264
              O 25 -- V 3                    0.33        -0.01          2.00116
              O 26 -- V 4                    0.33        -0.01          2.00157
              O 15 -- Fe 1                   0.30        -0.04          2.00205
              O 16 -- Fe 2                   0.30        -0.04          2.00209
             Li 10 -- O 37                   0.16         0.00          2.00221
             Li 9  -- O 38                   0.16         0.00          2.00231
             Li 7  -- O 5                    0.20         0.00          2.02276
             Li 8  -- O 6                    0.19         0.00          2.02304
              O 33 -- Fe 4                   0.29        -0.04          2.02379
              O 34 -- Fe 3                   0.29        -0.04          2.02429
              O 36 -- V 8                    0.32        -0.00          2.02548
             Li 4  -- O 8                    0.16         0.00          2.02585
             Li 3  -- O 7                    0.16         0.00          2.02591
              O 35 -- V 7                    0.31        -0.00          2.02638
             Li 6  -- O 30                   0.18         0.00          2.03295
             Li 5  -- O 29                   0.18         0.00          2.03317
             Li 7  -- O 42                   0.24         0.00          2.03668
             Li 8  -- O 41                   0.24         0.00          2.03782
              O 2  -- Fe 4                   0.29        -0.04          2.03845
              O 1  -- Fe 3                   0.29        -0.04          2.03875
              O 18 -- V 4                    0.26        -0.00          2.03885
              O 17 -- V 3                    0.26        -0.00          2.03992
              O 17 -- Fe 1                   0.22        -0.04          2.04249
              O 18 -- Fe 2                   0.22        -0.04          2.04278
              O 9  -- Fe 1                   0.28        -0.04          2.04767
              O 10 -- Fe 2                   0.28        -0.04          2.04801
              O 40 -- Fe 2                   0.28        -0.04          2.05018
              O 39 -- Fe 1                   0.28        -0.04          2.05095
             Li 8  -- O 20                   0.17        -0.00          2.06423
             Li 4  -- O 4                    0.16         0.00          2.06485
             Li 3  -- O 3                    0.16         0.00          2.06534
             Li 7  -- O 19                   0.17        -0.00          2.06551
             Li 9  -- O 9                    0.06         0.00          2.07656
             Li 10 -- O 10                   0.06         0.00          2.07881
             Li 4  -- O 39                   0.11         0.00          2.08219
             Li 3  -- O 40                   0.11         0.00          2.08248
              O 42 -- Fe 4                   0.21        -0.04          2.08477
              O 41 -- Fe 3                   0.21        -0.04          2.08530
              O 7  -- Fe 4                   0.28        -0.04          2.09254
              O 8  -- Fe 3                   0.28        -0.04          2.09311
             Li 5  -- O 1                    0.12         0.00          2.09913
             Li 6  -- O 2                    0.12         0.00          2.09964
             Li 8  -- O 10                   0.13         0.00          2.10060
             Li 7  -- O 9                    0.13         0.00          2.10078
              O 3  -- Fe 6                   0.22        -0.01          2.10899
              O 4  -- Fe 5                   0.22        -0.01          2.10967
              O 5  -- Fe 6                   0.25        -0.02          2.12545
              O 6  -- Fe 5                   0.25        -0.02          2.12552
             Li 3  -- O 36                   0.09         0.00          2.13675
             Li 4  -- O 35                   0.09         0.00          2.13789
              O 29 -- Fe 1                   0.27        -0.03          2.14166
              O 30 -- Fe 2                   0.27        -0.03          2.14316
             Li 2  -- O 19                   0.15         0.00          2.14475
             Li 1  -- O 20                   0.15         0.00          2.14525
              O 15 -- Fe 6                   0.20        -0.01          2.16019
              O 16 -- Fe 5                   0.20        -0.01          2.16134
             Li 1  -- O 13                   0.07        -0.00          2.16945
             Li 2  -- O 14                   0.07        -0.00          2.17085
              O 26 -- Fe 5                   0.18        -0.02          2.19091
              O 25 -- Fe 6                   0.18        -0.02          2.19130
             Li 6  -- O 18                   0.08         0.00          2.19362
             Li 5  -- O 17                   0.08         0.00          2.19450
              O 22 -- Fe 6                   0.23        -0.02          2.20439
              O 21 -- Fe 5                   0.23        -0.02          2.20476
             Li 2  -- O 38                   0.12         0.00          2.21952
             Li 1  -- O 37                   0.12         0.00          2.21960
              O 37 -- Fe 5                   0.16        -0.02          2.22710
              O 38 -- Fe 6                   0.16        -0.02          2.22746
             Li 2  -- O 42                   0.01        -0.00          2.29489
             Li 1  -- O 41                   0.00        -0.00          2.29705
             Li 3  -- O 22                  -0.02         0.00          2.45581
             Li 4  -- O 21                  -0.02         0.00          2.45800
              O 18 -- O 36                  -0.06        -0.00          2.48294
              O 17 -- O 35                  -0.06        -0.00          2.48329
             Li 6  -- O 20                  -0.02        -0.00          2.55754
             Li 5  -- O 19                  -0.02        -0.00          2.56068
              O 36 -- O 42                  -0.05        -0.01          2.56072
              O 35 -- O 41                  -0.05        -0.01          2.56081
             Li 2  -- Li 7                  -0.21        -0.00          2.57490
             Li 1  -- Li 8                  -0.21        -0.00          2.57579
             Li 7  -- O 33                  -0.02         0.00          2.58050
             Li 8  -- O 34                  -0.02         0.00          2.58336
             Li 2  -- O 5                   -0.03        -0.00          2.61109
             Li 1  -- O 6                   -0.03        -0.00          2.61194
              O 13 -- O 41                  -0.03        -0.00          2.67010
              O 15 -- O 17                  -0.04        -0.00          2.67111
              O 14 -- O 42                  -0.03        -0.00          2.67128
              O 16 -- O 18                  -0.04        -0.00          2.67151
              O 8  -- O 35                  -0.04        -0.00          2.68838
              O 7  -- O 36                  -0.04        -0.00          2.68841
              O 18 -- O 30                  -0.04        -0.00          2.69423
              O 17 -- O 29                  -0.04        -0.00          2.69463
              O 21 -- O 35                  -0.03         0.00          2.70223
              O 22 -- O 36                  -0.03         0.00          2.70249
             Li 10 -- O 8                   -0.08        -0.00          2.70369
             Li 9  -- Fe 6                  -0.11        -0.03          2.70398
             Li 10 -- Fe 5                  -0.11        -0.03          2.70440
             Li 9  -- O 7                   -0.08        -0.00          2.70580
              O 16 -- O 26                  -0.04        -0.00          2.70927
              O 15 -- O 25                  -0.04        -0.00          2.71017
              O 29 -- O 33                  -0.01        -0.00          2.72647
              O 30 -- O 34                  -0.01        -0.00          2.72675
              O 8  -- O 10                  -0.02        -0.00          2.73031
              O 7  -- O 9                   -0.02        -0.00          2.73172
              O 14 -- O 22                  -0.01        -0.00          2.74053
              O 13 -- O 21                  -0.01        -0.00          2.74094
              O 14 -- O 18                  -0.02        -0.00          2.75329
              O 13 -- O 17                  -0.02        -0.00          2.75354
              O 9  -- O 33                  -0.03        -0.00          2.75539
              O 10 -- O 34                  -0.03        -0.00          2.75654
              O 10 -- O 40                  -0.03        -0.00          2.76574
              O 9  -- O 39                  -0.03        -0.00          2.76670
              O 2  -- O 33                  -0.03        -0.00          2.78550
              O 1  -- O 34                  -0.03        -0.00          2.78595
             Li 9  -- Fe 1                  -0.20        -0.03          2.78790
             Li 10 -- Fe 2                  -0.20        -0.03          2.78983
             Li 10 -- V 12                  -0.27        -0.01          2.81915
             Li 9  -- V 11                  -0.28        -0.01          2.81959
              O 1  -- O 31                   0.00        -0.00          2.81991
              O 2  -- O 32                   0.00        -0.00          2.82055
              O 8  -- O 28                  -0.00         0.00          2.82215
              O 7  -- O 27                  -0.00         0.00          2.82272
              O 3  -- O 33                   0.00        -0.00          2.82388
              O 4  -- O 34                   0.00        -0.00          2.82447
              O 15 -- O 29                  -0.03        -0.00          2.82532
              O 16 -- O 30                  -0.03        -0.00          2.82547
              O 10 -- O 28                   0.00        -0.00          2.82582
              O 9  -- O 27                   0.00        -0.00          2.82665
              O 2  -- O 24                  -0.01        -0.00          2.82998
              O 1  -- O 23                  -0.01        -0.00          2.83033
              O 6  -- O 12                   0.00         0.00          2.83161
              O 24 -- O 38                  -0.00        -0.00          2.83166
              O 5  -- O 11                   0.00         0.00          2.83176
              O 23 -- O 37                  -0.00        -0.00          2.83220
              O 17 -- O 31                  -0.03        -0.00          2.83352
              O 18 -- O 32                  -0.03        -0.00          2.83363
              O 11 -- O 39                   0.00         0.00          2.83904
              O 12 -- O 40                   0.00         0.00          2.83942
              O 1  -- O 11                  -0.03        -0.00          2.84131
              O 2  -- O 12                  -0.03        -0.00          2.84160
              O 23 -- O 39                  -0.01        -0.00          2.84213
              O 24 -- O 40                  -0.01        -0.00          2.84239
              O 19 -- O 25                  -0.01         0.00          2.84359
              O 20 -- O 26                  -0.01         0.00          2.84437
              O 23 -- O 31                  -0.00         0.00          2.85062
              O 24 -- O 32                  -0.00         0.00          2.85097
              O 5  -- O 23                  -0.00         0.00          2.85243
              O 6  -- O 40                   0.00        -0.00          2.85255
              O 6  -- O 24                  -0.00         0.00          2.85268
              O 5  -- O 39                   0.00        -0.00          2.85269
              O 12 -- O 24                  -0.00         0.00          2.85298
              O 2  -- O 7                   -0.03        -0.00          2.85313
              O 11 -- O 23                  -0.00         0.00          2.85359
              O 1  -- O 8                   -0.03        -0.00          2.85395
              O 12 -- O 36                  -0.03        -0.00          2.85404
              O 11 -- O 35                  -0.03        -0.00          2.85429
              O 31 -- O 39                  -0.02        -0.00          2.85491
              O 25 -- O 27                  -0.00         0.00          2.85510
              O 26 -- O 28                  -0.00         0.00          2.85523
              O 4  -- O 30                   0.00        -0.00          2.85561
              O 30 -- O 40                  -0.03        -0.00          2.85628
              O 29 -- O 39                  -0.03        -0.00          2.85641
              O 3  -- O 29                   0.00        -0.00          2.85644
              O 32 -- O 40                  -0.02        -0.00          2.85724
              O 31 -- O 37                   0.00         0.00          2.85727
              O 32 -- O 38                   0.00         0.00          2.85767
              O 9  -- O 15                  -0.03        -0.00          2.85959
              O 10 -- O 16                  -0.03        -0.00          2.86022
              O 13 -- O 34                  -0.00         0.00          2.86627
              O 14 -- O 33                  -0.00         0.00          2.86657
              O 33 -- O 42                  -0.03        -0.00          2.87662
              O 34 -- O 41                  -0.03        -0.00          2.87711
              O 10 -- O 26                  -0.00         0.00          2.87767
              O 9  -- O 25                  -0.00         0.00          2.87869
              O 19 -- O 42                  -0.02         0.00          2.87997
              O 20 -- O 41                  -0.02         0.00          2.88108
             Li 10 -- O 21                  -0.02        -0.00          2.88290
             Li 9  -- O 22                  -0.02        -0.00          2.88321
              O 8  -- O 41                  -0.03        -0.00          2.88445
              O 18 -- O 20                  -0.01         0.00          2.88448
              O 7  -- O 42                  -0.03        -0.00          2.88469
              O 17 -- O 19                  -0.01         0.00          2.88581
              O 21 -- O 41                   0.01        -0.00          2.88651
              O 1  -- O 37                   0.00        -0.00          2.88728
              O 4  -- O 13                  -0.00         0.00          2.88735
              O 22 -- O 42                   0.01        -0.00          2.88742
              O 2  -- O 38                   0.00        -0.00          2.88791
              O 3  -- O 14                  -0.00         0.00          2.88801
              O 27 -- O 29                  -0.02        -0.00          2.89455
              O 28 -- O 30                  -0.02        -0.00          2.89463
              O 5  -- O 19                  -0.02         0.00          2.90742
              O 6  -- O 20                  -0.02         0.00          2.90747
              O 5  -- O 29                  -0.02         0.00          2.91371
              O 6  -- O 30                  -0.02         0.00          2.91470
              O 7  -- O 38                  -0.03         0.00          2.92330
              O 8  -- O 37                  -0.03         0.00          2.92342
              O 3  -- O 22                  -0.02        -0.00          2.92926
              O 3  -- O 25                  -0.03        -0.00          2.93083
              O 4  -- O 21                  -0.02        -0.00          2.93101
              O 4  -- O 26                  -0.03        -0.00          2.93110
              O 26 -- O 36                  -0.01         0.00          2.93189
              O 25 -- O 35                  -0.01         0.00          2.93334
             Li 3  -- O 24                  -0.03         0.00          2.93839
              O 5  -- O 38                  -0.02        -0.00          2.93977
              O 6  -- O 37                  -0.02        -0.00          2.94059
             Li 4  -- O 23                  -0.03         0.00          2.94087
              O 19 -- O 27                  -0.02         0.00          2.94100
              O 20 -- O 28                  -0.02         0.00          2.94205
              O 21 -- O 26                  -0.02        -0.00          2.94232
              O 22 -- O 25                  -0.02        -0.00          2.94294
              O 8  -- O 34                  -0.02        -0.00          2.94448
              O 22 -- O 38                  -0.02        -0.00          2.94456
              O 21 -- O 37                  -0.02        -0.00          2.94481
              O 7  -- O 33                  -0.02        -0.00          2.94534
             Li 8  -- V 12                  -0.24        -0.01          2.94876
              O 14 -- O 29                   0.00         0.00          2.94884
              O 13 -- O 30                   0.00         0.00          2.94905
             Li 7  -- V 11                  -0.24        -0.01          2.94914
              O 18 -- O 22                   0.00         0.00          2.95220
              O 17 -- O 21                   0.00         0.00          2.95315
             Li 9  -- V 1                   -0.25        -0.01          2.95773
              O 12 -- O 33                  -0.02        -0.00          2.95801
             Li 10 -- V 2                   -0.25        -0.01          2.95829
              O 11 -- O 34                  -0.02        -0.00          2.95909
              O 8  -- O 26                  -0.00        -0.00          2.96184
              O 7  -- O 25                  -0.00        -0.00          2.96196
             Li 8  -- V 10                  -0.21        -0.01          2.96506
             Li 7  -- V 9                   -0.21        -0.01          2.96542
             Li 8  -- O 40                  -0.06        -0.00          2.96955
             Li 7  -- O 39                  -0.06        -0.00          2.97050
              O 13 -- O 31                  -0.01         0.00          2.97493
              O 14 -- O 32                  -0.01         0.00          2.97641
              O 3  -- O 5                   -0.02        -0.00          2.98113
              O 4  -- O 6                   -0.02        -0.00          2.98186
              O 4  -- O 8                   -0.02        -0.00          2.99039
              O 3  -- O 7                   -0.02        -0.00          2.99086
              V 8  -- Fe 4                  -0.26        -0.03          2.99632
              V 7  -- Fe 3                  -0.26        -0.03          2.99634
              V 4  -- Fe 2                  -0.21        -0.04          2.99751
              V 3  -- Fe 1                  -0.21        -0.04          2.99875
              O 11 -- O 25                  -0.01         0.00          2.99980
================================================================================


Writing analysis data to ml_dos.castep_bin

Writing model to ml_dos.check
 
 A BibTeX formatted list of references used in this run has been written to 
 ml_dos.bib
 
Initialisation time =     14.11 s
Calculation time    =  41626.56 s
Finalisation time   =      7.78 s
Total time          =  41648.46 s
Peak Memory Use     = 5942028 kB
 
Overall parallel efficiency rating: Terrible (34%)
 
Data was distributed by:-
G-vector (40-way); efficiency rating: Terrible (34%)
