 +-------------------------------------------------+
 |                                                 |
 |      CCC   AA    SSS  TTTTT  EEEEE  PPPP        |
 |     C     A  A  S       T    E      P   P       |
 |     C     AAAA   SS     T    EEE    PPPP        |
 |     C     A  A     S    T    E      P           |
 |      CCC  A  A  SSS     T    EEEEE  P           |
 |                                                 |
 +-------------------------------------------------+
 |                                                 |
 | Welcome to Academic Release CASTEP version 25.12|
 | Ab Initio Total Energy Program                  |
 |                                                 |
 | Authors:                                        |
 | M. Segall, M. Probert, C. Pickard, P. Hasnip,   |
 | S. Clark, K. Refson, J. R. Yates,               |
 | A. Bartok-Partay, M. Payne                      |
 |                                                 |
 | Contributors:                                   |
 | P. Lindan, P. Haynes, J. White, V. Milman,      |
 | N. Govind, M. Gibson, P. Tulip, V. Cocula,      |
 | B. Montanari, D. Quigley, M. Glover,            |
 | L. Bernasconi, A. Perlov, M. Plummer,           |
 | E. McNellis, J. Meyer, J. Gale, D. Jochym       |
 | J. Aarons, B. Walker, R. Gillen, D. Jones       |
 | T. Green, I. J. Bush, C. J. Armstrong,          |
 | E. J. Higgins, E. L. Brown, M. S. McFly,        |
 | J. Wilkins, B-C. Shih, P. J. P. Byrne,          |
 | R. J. Maurer, J. C. Womack, J. Dziedzic,        |
 | L. LeBlanc, T. K. Stenczel, J. Kermode,         |
 | S. Sturniolo, B. Shi, B. Durham, M. Evans,      |
 | M. J. Smith, A. Tamerus, Z. Hawkhead,           |
 | V. Ravindran, T. Hollins, S. A. Joyce,          |
 | R. T. Strong, A. M. Reilly, S. J. Donaldson,    |
 | J. C. A. Prentice                               |
 |                                                 |
 | Copyright (c) 2000 - 2024                       |
 |                                                 |
 |     Distributed under license from Cambridge    |
 |     Enterprise for academic use only.           |
 |                                                 |
 | Please cite                                     |
 |                                                 |
 |     "First principles methods using CASTEP"     |
 |                                                 |
 |         Zeitschrift fuer Kristallographie       |
 |           220(5-6) pp. 567-570 (2005)           |
 |                                                 |
 | S. J. Clark, M. D. Segall, C. J. Pickard,       |
 | P. J. Hasnip, M. J. Probert, K. Refson,         |
 | M. C. Payne                                     |
 |                                                 |
 |       in all publications arising from          |
 |              your use of CASTEP                 |
 |                                                 |
 +-------------------------------------------------+
 |                                                 |
 |              http://www.castep.org              |
 |                                                 |
 +-------------------------------------------------+



 Compiled for linux_x86_64_gfortran10 on Sun, 13 Jul 2025 14:49:40 -0400
 from code version git version unavailable
 Compiler: GNU Fortran 13.3.0; Optimisation: fast
 Comms   : Open MPI v5.0.3
 MATHLIBS: flexiblas (IMKL) (LAPACK version 3.12.0)
 FFT Lib : fftw3 version fftw-3.3.10-sse2-avx-avx2-avx2_128
 Fundamental constants values: CODATA 2018

 Run started: Sun, 21 Dec 2025 22:03:46 -0500
 Warning in parameters_read: presetting of magnetic moments on atoms cannot be guaranteed when metals_method /= density mixing

 Atomic calculation performed for Li: 1s2 2s1

 Converged in 47 iterations to an ae energy of -202.784 eV

   ============================================================                
   | Pseudopotential Report - Date of generation 21-12-2025   |                
   ------------------------------------------------------------                
   | Element: Li Ionic charge:  3.00 Level of theory: PBE     |                
   | Atomic Solver: Koelling-Harmon                           |                
   |                                                          |                
   |               Reference Electronic Structure             |                
   |         Orbital         Occupation         Energy        |                
   |            1s              2.000           -1.906        |                
   |            2s              1.000           -0.106        |                
   |                                                          |                
   |                 Pseudopotential Definition               |                
   |        Beta     l      e      Rc     scheme   norm       |                
   |          1      0   -1.906   1.001     qc      0         |                
   |          2      0   -0.106   1.001     qc      0         |                
   |          3      0    0.250   1.001     qc      0         |                
   |         loc     1    0.000   1.001     pn      0         |                
   |                                                          |                
   | Augmentation charge Rinner = 0.699                       |                
   | No partial core correction                               |                
   ------------------------------------------------------------                
   | "1|1.0|14|16|18|10U:20(qc=7)"                            |                
   ------------------------------------------------------------                
   |      Author: Chris J. Pickard, Cambridge University      |                
   ============================================================                

 Atomic calculation performed for O: 1s2 2s2 2p4

 Converged in 61 iterations to an ae energy of -2040.902 eV

   ============================================================                
   | Pseudopotential Report - Date of generation 21-12-2025   |                
   ------------------------------------------------------------                
   | Element: O Ionic charge:  6.00 Level of theory: PBE      |                
   | Atomic Solver: Koelling-Harmon                           |                
   |                                                          |                
   |               Reference Electronic Structure             |                
   |         Orbital         Occupation         Energy        |                
   |            2s              2.000           -0.881        |                
   |            2p              4.000           -0.332        |                
   |                                                          |                
   |                 Pseudopotential Definition               |                
   |        Beta     l      e      Rc     scheme   norm       |                
   |          1      0   -0.881   1.100     qc      0         |                
   |          2      0    0.250   1.100     qc      0         |                
   |          3      1   -0.332   1.100     qc      0         |                
   |          4      1    0.250   1.100     qc      0         |                
   |         loc     2    0.000   1.100     pn      0         |                
   |                                                          |                
   | Augmentation charge Rinner = 0.769                       |                
   | Partial core correction Rc = 0.769                       |                
   ------------------------------------------------------------                
   | "2|1.1|17|20|23|20:21(qc=8)"                             |                
   ------------------------------------------------------------                
   |      Author: Chris J. Pickard, Cambridge University      |                
   ============================================================                

 Atomic calculation performed for V: 1s2 2s2 2p6 3s2 3p6 3d3 4s2

 Converged in 81 iterations to an ae energy of -25823.733 eV

   ============================================================                
   | Pseudopotential Report - Date of generation 21-12-2025   |                
   ------------------------------------------------------------                
   | Element: V Ionic charge: 13.00 Level of theory: PBE      |                
   | Atomic Solver: Koelling-Harmon                           |                
   |                                                          |                
   |               Reference Electronic Structure             |                
   |         Orbital         Occupation         Energy        |                
   |            3s              2.000           -2.581        |                
   |            3p              6.000           -1.618        |                
   |            3d              3.000           -0.190        |                
   |            4s              2.000           -0.173        |                
   |                                                          |                
   |                 Pseudopotential Definition               |                
   |        Beta     l      e      Rc     scheme   norm       |                
   |          1      0   -2.581   1.803     qc      0         |                
   |          2      0   -0.173   1.803     qc      0         |                
   |          3      0    0.250   1.803     qc      0         |                
   |          4      1   -1.618   1.803     qc      0         |                
   |          5      1    0.250   1.803     qc      0         |                
   |          6      2   -0.190   1.803     qc      0         |                
   |          7      2    0.250   1.803     qc      0         |                
   |         loc     3    0.000   1.803     pn      0         |                
   |                                                          |                
   | Augmentation charge Rinner = 0.600                       |                
   | Partial core correction Rc = 0.600                       |                
   ------------------------------------------------------------                
   | "3|1.8|1.8|0.6|12|14|16|30U:40:31:32(qc=7)"              |                
   ------------------------------------------------------------                
   |      Author: Chris J. Pickard, Cambridge University      |                
   ============================================================                

 Atomic calculation performed for Fe: 1s2 2s2 2p6 3s2 3p6 3d6 4s2

 Converged in 96 iterations to an ae energy of -34625.102 eV

   ============================================================                
   | Pseudopotential Report - Date of generation 21-12-2025   |                
   ------------------------------------------------------------                
   | Element: Fe Ionic charge:  8.00 Level of theory: PBE     |                
   | Atomic Solver: Koelling-Harmon                           |                
   |                                                          |                
   |               Reference Electronic Structure             |                
   |         Orbital         Occupation         Energy        |                
   |            3d              6.000           -0.276        |                
   |            4s              2.000           -0.194        |                
   |                                                          |                
   |                 Pseudopotential Definition               |                
   |        Beta     l      e      Rc     scheme   norm       |                
   |          1      0   -0.194   2.399     qc      0         |                
   |          2      0    0.250   2.399     qc      0         |                
   |          3      1    0.000   2.399     qc      0         |                
   |          4      1    0.250   2.399     qc      0         |                
   |          5      2   -0.276   1.997     qc      0         |                
   |          6      2    0.250   1.997     qc      0         |                
   |         loc     3    0.000   2.399     pn      0         |                
   |                                                          |                
   | Augmentation charge Rinner = 1.000                       |                
   | Partial core correction Rc = 1.000                       |                
   ------------------------------------------------------------                
   | "3|2.4|2.4|1.0|8|9|10|40:41:32U2U2(qc=5.5)"              |                
   ------------------------------------------------------------                
   |      Author: Chris J. Pickard, Cambridge University      |                
   ============================================================                

 Pseudo atomic calculation performed for Li 1s2 2s1

 Converged in 18 iterations to a total energy of -200.5098 eV

 Pseudo atomic calculation performed for O 2s2 2p4

 Converged in 24 iterations to a total energy of -432.3399 eV

 Pseudo atomic calculation performed for V 3s2 3p6 3d3 4s2

 Converged in 36 iterations to a total energy of -2065.8041 eV

 Pseudo atomic calculation performed for Fe 3d6 4s2

 Converged in 34 iterations to a total energy of -853.8318 eV
 Calculation parallelised over 40 processes.
 Data is distributed by G-vector(40-way)

 ************************************ Title ************************************
 

 ***************************** General Parameters ******************************
  
 output verbosity                               : normal  (1)
 write checkpoint data to                       : ml_dos.check
 type of calculation                            : Electronic Spectroscopy
 stress calculation                             : off
 density difference calculation                 : off
 electron localisation func (ELF) calculation   : off
 Hirshfeld analysis                             : off
 polarisation (Berry phase) analysis            : off
 molecular orbital projected DOS                : off
 deltaSCF calculation                           : off
 unlimited duration calculation
 timing information                             : on
 memory usage estimate                          : on
 write extra output files                       : on
 write final potential to formatted file        : off
 write final density to formatted file          : off
 write BibTeX reference list                    : on
 write OTFG pseudopotential files               : on
 write electrostatic potential file             : on
 write bands file                               : on
 checkpoint writing                             : both castep_bin and check files
  
 output         length unit                     : A
 output           mass unit                     : amu
 output           time unit                     : ps
 output         charge unit                     : e
 output           spin unit                     : hbar/2
 output         energy unit                     : eV
 output          force unit                     : eV/A
 output       velocity unit                     : A/ps
 output       pressure unit                     : GPa
 output     inv_length unit                     : 1/A
 output      frequency unit                     : cm-1
 output force constant unit                     : eV/A**2
 output         volume unit                     : A**3
 output   IR intensity unit                     : (D/A)**2/amu
 output         dipole unit                     : D
 output         efield unit                     : eV/A/e
 output        entropy unit                     : J/mol/K
 output    efield chi2 unit                     : pm/V
  
 wavefunctions paging                           : none
 random number generator seed                   :  220346078
 data distribution                              : optimal for this architecture
 optimization strategy                          : balance speed and memory

 *********************** Exchange-Correlation Parameters ***********************
  
 using functional                               : Perdew Burke Ernzerhof
 relativistic treatment                         : Koelling-Harmon
 DFT+D: Semi-empirical dispersion correction    : off

 ************************* Pseudopotential Parameters **************************
  
 pseudopotential representation                 : reciprocal space
 <beta|phi> representation                      : reciprocal space
 spin-orbit coupling                            : off

 **************************** Basis Set Parameters *****************************
  
 plane wave basis set cut-off                   :   900.0000   eV
 size of standard grid                          :     2.0000
 size of   fine   gmax                          :    30.7390   1/A
 finite basis set correction                    : none

 **************************** Electronic Parameters ****************************
  
 number of  electrons                           :  486.0    
 net charge of system                           :  0.000    
 net spin   of system                           :  39.00    
 number of  up  spins                           :  262.5    
 number of down spins                           :  223.5    
 treating system as spin-polarized
 number of bands                                :        316
 electron temperature                           :     0.0000   K

 ********************* Electronic Minimization Parameters **********************
  
 Method: Treating system as metallic with ensemble DFT treatment of electrons,
         and number of  SD  steps               :          1
         and number of  CG  steps               :          4
  
 total energy / atom convergence tol.           : 0.1000E-05   eV
 max force / atom convergence tol.              : ignored
 convergence tolerance window                   :          3   cycles
 max. number of SCF cycles                      :        100
 number of fixed-spin iterations                :         10
 smearing scheme                                : Gaussian
 smearing width                                 : 0.2000       eV
 Fermi energy convergence tolerance             : 0.2721E-13   eV
 number of occupancy cycles                     :          6
 periodic dipole correction                     : NONE

 *********************** Population Analysis Parameters ************************
  
 Population analysis with cutoff                :  3.000       A
 Population analysis output                     : summary and pdos components
 Partial DOS weights calculated

 ********************* Electronic Spectroscopy Parameters **********************
  
 electronic spectroscopy with theory level      : DFT       
 spectroscopy calculation                       : density of states
 max. number of iterations                      :         60
 max. steps per iteration                       :          5
 number of bands / k-point                      :        405
 band convergence tolerance                     : 0.1000E-05   eV
 write orbitals file                            : off

 *******************************************************************************
  

                           -------------------------------
                                      Unit Cell
                           -------------------------------
        Real Lattice(A)                      Reciprocal Lattice(1/A)
     8.2981510     0.0000000     0.0000000        0.757178956  -0.413129066   0.053229967
     3.9744710     7.2843720     0.0000000        0.000000000   0.862556897   0.053213977
    -1.5078360    -0.8947890    14.5038290        0.000000000   0.000000000   0.433208728

                       Lattice parameters(A)       Cell Angles
                    a =      8.298151          alpha =   95.923395
                    b =      8.298102          beta  =   95.924036
                    c =     14.609424          gamma =   61.382405

                       Current cell volume =           876.710323       A**3
                                   density =             1.925097   AMU/A**3
                                           =             3.196700     g/cm^3

                           -------------------------------
                                     Cell Contents
                           -------------------------------
                         Total number of ions in cell =   70
                      Total number of species in cell =    4
                        Max number of any one species =   42

            xxxxxxxxxxxxxxxxxxxxxxxxxxxxxxxxxxxxxxxxxxxxxxxxxxxxxxxxxxxx
            x  Element    Atom        Fractional coordinates of atoms  x
            x            Number           u          v          w      x
            x----------------------------------------------------------x
            x  Li           1         0.873027   0.198960   0.629859   x 
            x  Li           2         0.198877   0.873074   0.129864   x 
            x  Li           3         0.998682   0.629541   0.039126   x 
            x  Li           4         0.629608   0.998623   0.539182   x 
            x  Li           5         0.376130   0.715290   0.360169   x 
            x  Li           6         0.715270   0.376125   0.860178   x 
            x  Li           7         0.456031   0.994412   0.232208   x 
            x  Li           8         0.994565   0.455974   0.732214   x 
            x  Li           9         0.825302   0.238426   0.202318   x 
            x  Li          10         0.238431   0.825285   0.702320   x 
            x  O            1         0.150135   0.806956   0.476222   x 
            x  O            2         0.806945   0.150052   0.976249   x 
            x  O            3         0.209377   0.476811   0.139463   x 
            x  O            4         0.476849   0.209331   0.639452   x 
            x  O            5         0.269648   0.228926   0.286794   x 
            x  O            6         0.228785   0.269783   0.786782   x 
            x  O            7         0.907403   0.882204   0.121409   x 
            x  O            8         0.882221   0.907451   0.621410   x 
            x  O            9         0.811604   0.085564   0.294747   x 
            x  O           10         0.085581   0.811620   0.794733   x 
            x  O           11         0.176123   0.444160   0.460371   x 
            x  O           12         0.444150   0.176129   0.960345   x 
            x  O           13         0.640193   0.445542   0.630626   x 
            x  O           14         0.445503   0.640188   0.130653   x 
            x  O           15         0.843353   0.420195   0.303989   x 
            x  O           16         0.420196   0.843350   0.803951   x 
            x  O           17         0.609005   0.544726   0.457563   x 
            x  O           18         0.544756   0.609059   0.957570   x 
            x  O           19         0.555442   0.790886   0.311224   x 
            x  O           20         0.790885   0.555417   0.811215   x 
            x  O           21         0.552592   0.826366   0.598548   x 
            x  O           22         0.826388   0.552557   0.098555   x 
            x  O           23         0.277811   0.066333   0.448675   x 
            x  O           24         0.066318   0.277800   0.948684   x 
            x  O           25         0.933067   0.674652   0.275575   x 
            x  O           26         0.674698   0.933032   0.775579   x 
            x  O           27         0.168956   0.833498   0.261516   x 
            x  O           28         0.833537   0.168995   0.761510   x 
            x  O           29         0.477369   0.453371   0.294158   x 
            x  O           30         0.453318   0.477428   0.794177   x 
            x  O           31         0.899322   0.183523   0.484524   x 
            x  O           32         0.183473   0.899345   0.984534   x 
            x  O           33         0.600597   0.255847   0.131333   x 
            x  O           34         0.255914   0.600527   0.631406   x 
            x  O           35         0.815832   0.750867   0.451719   x 
            x  O           36         0.750879   0.815822   0.951720   x 
            x  O           37         0.166289   0.043466   0.628426   x 
            x  O           38         0.043431   0.166305   0.128430   x 
            x  O           39         0.545780   0.193775   0.434428   x 
            x  O           40         0.193780   0.545760   0.934402   x 
            x  O           41         0.912816   0.543255   0.603312   x 
            x  O           42         0.543252   0.912804   0.103310   x 
            x  V            1         0.421017   0.456757   0.176211   x 
            x  V            2         0.456828   0.420977   0.676230   x 
            x  V            3         0.774466   0.649425   0.347251   x 
            x  V            4         0.649395   0.774425   0.847274   x 
            x  V            5         0.127676   0.020988   0.508649   x 
            x  V            6         0.020970   0.127667   0.008667   x 
            x  V            7         0.684648   0.599434   0.567742   x 
            x  V            8         0.599447   0.684647   0.067753   x 
            x  V            9         0.318287   0.240494   0.404510   x 
            x  V           10         0.240482   0.318244   0.904508   x 
            x  V           11         0.950205   0.869716   0.241622   x 
            x  V           12         0.869698   0.950250   0.741636   x 
            x  Fe           1         0.692365   0.299912   0.385658   x 
            x  Fe           2         0.299974   0.692213   0.885660   x 
            x  Fe           3         0.039272   0.669639   0.540010   x 
            x  Fe           4         0.669669   0.039505   0.040117   x 
            x  Fe           5         0.403630   0.041013   0.703227   x 
            x  Fe           6         0.040837   0.403670   0.203233   x 
            xxxxxxxxxxxxxxxxxxxxxxxxxxxxxxxxxxxxxxxxxxxxxxxxxxxxxxxxxxxx


                         No user defined ionic velocities

                           -------------------------------
                                   Details of Species
                           -------------------------------

                               Mass of species in AMU
                                    Li    6.9410000
                                    O   15.9994000
                                    V   50.9415000
                                    Fe   55.8450000

                          Electric Quadrupole Moment (Barn)
                                    Li   -0.0401000 Isotope   7
                                    O   -0.0255800 Isotope  17
                                    V   -0.0520000 Isotope  51
                                    Fe    0.1600000 Isotope  57
         xxxxxxxxxxxxxxxxxxxxxxxxxxxxxxxxxxxxxxxxxxxxxxxxxxxxxxxxxxxxxxxxxxxxxx
         |  Element    Atom         Initial            Initial magnetic       |
         |            Number    spin polarization        moment (uB)     Fix? |
         |--------------------------------------------------------------------|
         | Li             1         0.000000              0.000       F       |
         | Li             2         0.000000              0.000       F       |
         | Li             3         0.000000              0.000       F       |
         | Li             4         0.000000              0.000       F       |
         | Li             5         0.000000              0.000       F       |
         | Li             6         0.000000              0.000       F       |
         | Li             7         0.000000              0.000       F       |
         | Li             8         0.000000              0.000       F       |
         | Li             9         0.000000              0.000       F       |
         | Li            10         0.000000              0.000       F       |
         | O              1         0.000000              0.000       F       |
         | O              2         0.000000              0.000       F       |
         | O              3         0.000000              0.000       F       |
         | O              4         0.000000              0.000       F       |
         | O              5         0.000000              0.000       F       |
         | O              6         0.000000              0.000       F       |
         | O              7         0.000000              0.000       F       |
         | O              8         0.000000              0.000       F       |
         | O              9         0.000000              0.000       F       |
         | O             10         0.000000              0.000       F       |
         | O             11         0.000000              0.000       F       |
         | O             12         0.000000              0.000       F       |
         | O             13         0.000000              0.000       F       |
         | O             14         0.000000              0.000       F       |
         | O             15         0.000000              0.000       F       |
         | O             16         0.000000              0.000       F       |
         | O             17         0.000000              0.000       F       |
         | O             18         0.000000              0.000       F       |
         | O             19         0.000000              0.000       F       |
         | O             20         0.000000              0.000       F       |
         | O             21         0.000000              0.000       F       |
         | O             22         0.000000              0.000       F       |
         | O             23         0.000000              0.000       F       |
         | O             24         0.000000              0.000       F       |
         | O             25         0.000000              0.000       F       |
         | O             26         0.000000              0.000       F       |
         | O             27         0.000000              0.000       F       |
         | O             28         0.000000              0.000       F       |
         | O             29         0.000000              0.000       F       |
         | O             30         0.000000              0.000       F       |
         | O             31         0.000000              0.000       F       |
         | O             32         0.000000              0.000       F       |
         | O             33         0.000000              0.000       F       |
         | O             34         0.000000              0.000       F       |
         | O             35         0.000000              0.000       F       |
         | O             36         0.000000              0.000       F       |
         | O             37         0.000000              0.000       F       |
         | O             38         0.000000              0.000       F       |
         | O             39         0.000000              0.000       F       |
         | O             40         0.000000              0.000       F       |
         | O             41         0.000000              0.000       F       |
         | O             42         0.000000              0.000       F       |
         | V              1         0.076923              1.000       F       |
         | V              2         0.076923              1.000       F       |
         | V              3         0.076923              1.000       F       |
         | V              4         0.076923              1.000       F       |
         | V              5         0.076923              1.000       F       |
         | V              6         0.076923              1.000       F       |
         | V              7         0.076923              1.000       F       |
         | V              8         0.076923              1.000       F       |
         | V              9         0.076923              1.000       F       |
         | V             10         0.076923              1.000       F       |
         | V             11         0.076923              1.000       F       |
         | V             12         0.076923              1.000       F       |
         | Fe             1         0.562500              4.500       F       |
         | Fe             2         0.562500              4.500       F       |
         | Fe             3         0.562500              4.500       F       |
         | Fe             4         0.562500              4.500       F       |
         | Fe             5         0.562500              4.500       F       |
         | Fe             6         0.562500              4.500       F       |
         xxxxxxxxxxxxxxxxxxxxxxxxxxxxxxxxxxxxxxxxxxxxxxxxxxxxxxxxxxxxxxxxxxxxxx



         Quantisation axis:    0.00000   0.00000   1.00000

         Units for Hubbard U values are eV
         xxxxxxxxxxxxxxxxxxxxxxxxxxxxxxxxxxxxxxxxxxxxxxxxxxxxxxxxxxxxxxxxxxxx
         |  Element     Atom     Hubbard U   values by orbital type         |
         |             Number      s          p          d          f       |
         |------------------------------------------------------------------|
         |Li            1         0.00000    0.00000    0.00000    0.00000  |
         |Li            2         0.00000    0.00000    0.00000    0.00000  |
         |Li            3         0.00000    0.00000    0.00000    0.00000  |
         |Li            4         0.00000    0.00000    0.00000    0.00000  |
         |Li            5         0.00000    0.00000    0.00000    0.00000  |
         |Li            6         0.00000    0.00000    0.00000    0.00000  |
         |Li            7         0.00000    0.00000    0.00000    0.00000  |
         |Li            8         0.00000    0.00000    0.00000    0.00000  |
         |Li            9         0.00000    0.00000    0.00000    0.00000  |
         |Li           10         0.00000    0.00000    0.00000    0.00000  |
         |O             1         0.00000    0.00000    0.00000    0.00000  |
         |O             2         0.00000    0.00000    0.00000    0.00000  |
         |O             3         0.00000    0.00000    0.00000    0.00000  |
         |O             4         0.00000    0.00000    0.00000    0.00000  |
         |O             5         0.00000    0.00000    0.00000    0.00000  |
         |O             6         0.00000    0.00000    0.00000    0.00000  |
         |O             7         0.00000    0.00000    0.00000    0.00000  |
         |O             8         0.00000    0.00000    0.00000    0.00000  |
         |O             9         0.00000    0.00000    0.00000    0.00000  |
         |O            10         0.00000    0.00000    0.00000    0.00000  |
         |O            11         0.00000    0.00000    0.00000    0.00000  |
         |O            12         0.00000    0.00000    0.00000    0.00000  |
         |O            13         0.00000    0.00000    0.00000    0.00000  |
         |O            14         0.00000    0.00000    0.00000    0.00000  |
         |O            15         0.00000    0.00000    0.00000    0.00000  |
         |O            16         0.00000    0.00000    0.00000    0.00000  |
         |O            17         0.00000    0.00000    0.00000    0.00000  |
         |O            18         0.00000    0.00000    0.00000    0.00000  |
         |O            19         0.00000    0.00000    0.00000    0.00000  |
         |O            20         0.00000    0.00000    0.00000    0.00000  |
         |O            21         0.00000    0.00000    0.00000    0.00000  |
         |O            22         0.00000    0.00000    0.00000    0.00000  |
         |O            23         0.00000    0.00000    0.00000    0.00000  |
         |O            24         0.00000    0.00000    0.00000    0.00000  |
         |O            25         0.00000    0.00000    0.00000    0.00000  |
         |O            26         0.00000    0.00000    0.00000    0.00000  |
         |O            27         0.00000    0.00000    0.00000    0.00000  |
         |O            28         0.00000    0.00000    0.00000    0.00000  |
         |O            29         0.00000    0.00000    0.00000    0.00000  |
         |O            30         0.00000    0.00000    0.00000    0.00000  |
         |O            31         0.00000    0.00000    0.00000    0.00000  |
         |O            32         0.00000    0.00000    0.00000    0.00000  |
         |O            33         0.00000    0.00000    0.00000    0.00000  |
         |O            34         0.00000    0.00000    0.00000    0.00000  |
         |O            35         0.00000    0.00000    0.00000    0.00000  |
         |O            36         0.00000    0.00000    0.00000    0.00000  |
         |O            37         0.00000    0.00000    0.00000    0.00000  |
         |O            38         0.00000    0.00000    0.00000    0.00000  |
         |O            39         0.00000    0.00000    0.00000    0.00000  |
         |O            40         0.00000    0.00000    0.00000    0.00000  |
         |O            41         0.00000    0.00000    0.00000    0.00000  |
         |O            42         0.00000    0.00000    0.00000    0.00000  |
         |V             1         0.00000    0.00000    3.25000    0.00000  |
         |V             2         0.00000    0.00000    3.25000    0.00000  |
         |V             3         0.00000    0.00000    3.25000    0.00000  |
         |V             4         0.00000    0.00000    3.25000    0.00000  |
         |V             5         0.00000    0.00000    3.25000    0.00000  |
         |V             6         0.00000    0.00000    3.25000    0.00000  |
         |V             7         0.00000    0.00000    3.25000    0.00000  |
         |V             8         0.00000    0.00000    3.25000    0.00000  |
         |V             9         0.00000    0.00000    3.25000    0.00000  |
         |V            10         0.00000    0.00000    3.25000    0.00000  |
         |V            11         0.00000    0.00000    3.25000    0.00000  |
         |V            12         0.00000    0.00000    3.25000    0.00000  |
         |Fe            1         0.00000    0.00000    5.30000    0.00000  |
         |Fe            2         0.00000    0.00000    5.30000    0.00000  |
         |Fe            3         0.00000    0.00000    5.30000    0.00000  |
         |Fe            4         0.00000    0.00000    5.30000    0.00000  |
         |Fe            5         0.00000    0.00000    5.30000    0.00000  |
         |Fe            6         0.00000    0.00000    5.30000    0.00000  |
         xxxxxxxxxxxxxxxxxxxxxxxxxxxxxxxxxxxxxxxxxxxxxxxxxxxxxxxxxxxxxxxxxxxx


                          Files used for pseudopotentials:
                                    Li 1|1.0|14|16|18|10U:20(qc=7)
                                    O 2|1.1|17|20|23|20:21(qc=8)
                                    V 3|1.8|1.8|0.6|12|14|16|30U:40:31:32(qc=7)
                                    Fe 3|2.4|2.4|1.0|8|9|10|40:41:32U2U2(qc=5.5)

                           -------------------------------
                              k-Points For BZ Sampling
                           -------------------------------
                       MP grid size for SCF calculation is  3  3  2
                            with an offset of   0.000  0.000  0.000
                       Number of kpoints used =             9

                           -------------------------------
                               Symmetry and Constraints
                           -------------------------------

                      Maximum deviation from symmetry =  0.00000         ANG

                      Number of symmetry operations   =           1
                      Number of ionic constraints     =           3
                      Point group of crystal =     1: C1, 1, 1
                      Space group of crystal =     1: P1, P 1

             Set iprint > 1 for details on symmetry rotations/translations

                         Centre of mass is constrained
             Set iprint > 2 for details of linear ionic constraints

                         Number of cell constraints= 0
                         Cell constraints are:  1 2 3 4 5 6

                         External pressure/stress (GPa)
                          0.00000   0.00000   0.00000
                                    0.00000   0.00000
                                              0.00000
 
+---------------- MEMORY AND SCRATCH DISK ESTIMATES PER PROCESS --------------+
|                                                     Memory          Disk    |
| Baseline code, static data and system overhead      822.0 MB         0.0 MB |
| BLAS internal memory storage                          0.0 MB         0.0 MB |
| Model and support data                              590.0 MB         0.0 MB |
| Electronic energy minimisation requirements         748.6 MB         0.0 MB |
| Force calculation requirements                        7.8 MB         0.0 MB |
|                                               ----------------------------- |
| Approx. total storage required per process         2160.6 MB         0.0 MB |
|                                                                             |
| Requirements will fluctuate during execution and may exceed these estimates |
+-----------------------------------------------------------------------------+
Calculating approximate eigenstates for fixed initial Hamiltonian
Cut-off for approx. calculation is  375.902 eV
Resetting cut-off to  900.000 eV
Improving states further at cut-off of  900.000 eV
Calculating total energy with cut-off of  900.000 eV.

 Pseudo atomic calculation performed for Li 1s2 2s1

 Converged in 18 iterations to a total energy of -200.5098 eV

 Pseudo atomic calculation performed for O 2s2 2p4

 Converged in 24 iterations to a total energy of -432.3399 eV

 Pseudo atomic calculation performed for V 3s2 3p6 3d3 4s2

 Converged in 36 iterations to a total energy of -2065.8041 eV

 Pseudo atomic calculation performed for Fe 3d6 4s2

 Converged in 34 iterations to a total energy of -853.8318 eV
------------------------------------------------------------------------ <-- SCF
SCF loop      Energy           Fermi           Energy gain       Timer   <-- SCF
                               energy          per atom          (sec)   <-- SCF
------------------------------------------------------------------------ <-- SCF
Initial  -4.70633205E+004  6.43668664E+000                       188.98  <-- SCF
      1  -5.05020331E+004  3.65217634E+000   4.91244665E+001    1006.64  <-- SCF
      2  -5.05668759E+004  3.05552515E+000   9.26325754E-001    1800.23  <-- SCF
      3  -5.05686680E+004  2.90861235E+000   2.56005541E-002    2430.25  <-- SCF
      4  -5.05687478E+004  2.90416907E+000   1.14008441E-003    2862.66  <-- SCF
      5  -5.05687554E+004  2.90062879E+000   1.08561182E-004    3295.45  <-- SCF
      6  -5.05687626E+004  2.89538043E+000   1.02504115E-004    3734.84  <-- SCF
      7  -5.05687645E+004  2.89151624E+000   2.77276308E-005    4171.40  <-- SCF
      8  -5.05687666E+004  2.88878671E+000   3.00701926E-005    4610.75  <-- SCF
      9  -5.05687685E+004  2.88791432E+000   2.71507082E-005    5071.12  <-- SCF
     10  -5.05429584E+004  3.68345786E+000  -3.68715764E-001    5644.81  <-- SCF
     11  -5.05503938E+004  3.00254513E+000   1.06220412E-001    6482.31  <-- SCF
     12  -5.05506600E+004  2.93035685E+000   3.80292839E-003    7353.57  <-- SCF
     13  -5.05507746E+004  2.96114544E+000   1.63694618E-003    8220.77  <-- SCF
     14  -5.05511014E+004  3.12201704E+000   4.66812894E-003    9119.59  <-- SCF
     15  -5.05511402E+004  3.06620877E+000   5.54709622E-004    9837.06  <-- SCF
     16  -5.05511519E+004  3.06524278E+000   1.66353490E-004   10653.52  <-- SCF
     17  -5.05511609E+004  3.06197100E+000   1.28408592E-004   11376.25  <-- SCF
     18  -5.05511691E+004  3.06175569E+000   1.17186248E-004   12104.12  <-- SCF
     19  -5.05511800E+004  3.05784964E+000   1.55721232E-004   12908.20  <-- SCF
     20  -5.05511918E+004  3.05781961E+000   1.69056957E-004   13711.75  <-- SCF
     21  -5.05512010E+004  3.05448547E+000   1.30961037E-004   14420.35  <-- SCF
     22  -5.05512104E+004  3.05428570E+000   1.34876648E-004   15214.40  <-- SCF
     23  -5.05512224E+004  3.05095482E+000   1.71367182E-004   15922.30  <-- SCF
     24  -5.05512336E+004  3.05109371E+000   1.59669005E-004   16640.97  <-- SCF
     25  -5.05512417E+004  3.04780794E+000   1.16149497E-004   17359.85  <-- SCF
     26  -5.05512497E+004  3.04821079E+000   1.14075227E-004   18079.29  <-- SCF
     27  -5.05512562E+004  3.04527022E+000   9.33404693E-005   18808.14  <-- SCF
     28  -5.05512627E+004  3.04539199E+000   9.26061206E-005   19527.79  <-- SCF
     29  -5.05512686E+004  3.04219572E+000   8.48544553E-005   20315.55  <-- SCF
     30  -5.05512734E+004  3.04265481E+000   6.73812184E-005   21020.71  <-- SCF
     31  -5.05512772E+004  3.03921298E+000   5.48171658E-005   21744.85  <-- SCF
     32  -5.05512812E+004  3.03987228E+000   5.68557720E-005   22451.87  <-- SCF
     33  -5.05512856E+004  3.03614155E+000   6.28562403E-005   23141.92  <-- SCF
     34  -5.05512907E+004  3.03651472E+000   7.37178798E-005   23842.68  <-- SCF
     35  -5.05512969E+004  3.03194859E+000   8.81333094E-005   24543.51  <-- SCF
     36  -5.05513034E+004  3.03185795E+000   9.26632842E-005   25267.96  <-- SCF
     37  -5.05513105E+004  3.02625711E+000   1.01909582E-004   25967.60  <-- SCF
     38  -5.05513171E+004  3.02549061E+000   9.45925217E-005   26692.05  <-- SCF
     39  -5.05513240E+004  3.01894456E+000   9.82474543E-005   27391.82  <-- SCF
     40  -5.05513304E+004  3.01685963E+000   9.05214462E-005   28041.33  <-- SCF
     41  -5.05513372E+004  3.00904222E+000   9.73555097E-005   28664.19  <-- SCF
     42  -5.05513444E+004  3.00525063E+000   1.03227070E-004   29292.13  <-- SCF
     43  -5.05513517E+004  2.99699600E+000   1.03772237E-004   29897.66  <-- SCF
     44  -5.05513583E+004  2.99416513E+000   9.47640715E-005   30502.84  <-- SCF
     45  -5.05513658E+004  2.98760777E+000   1.07383141E-004   31130.94  <-- SCF
     46  -5.05513713E+004  2.98600375E+000   7.89849779E-005   31757.88  <-- SCF
     47  -5.05513764E+004  2.98253650E+000   7.15519884E-005   32427.15  <-- SCF
     48  -5.05513806E+004  2.98187972E+000   6.11326721E-005   33139.33  <-- SCF
     49  -5.05513834E+004  2.98023811E+000   3.92203797E-005   33755.70  <-- SCF
     50  -5.05513854E+004  2.98028634E+000   2.89899403E-005   34408.03  <-- SCF
     51  -5.05513872E+004  2.97927429E+000   2.57820445E-005   35060.39  <-- SCF
     52  -5.05513887E+004  2.97944972E+000   2.08270520E-005   35733.87  <-- SCF
     53  -5.05513899E+004  2.97887031E+000   1.81914867E-005   36409.44  <-- SCF
     54  -5.05513909E+004  2.97913030E+000   1.39613352E-005   37063.97  <-- SCF
     55  -5.05513918E+004  2.97882141E+000   1.18757042E-005   37714.93  <-- SCF
     56  -5.05513925E+004  2.97912801E+000   1.02008576E-005   38439.42  <-- SCF
     57  -5.05513929E+004  2.97894599E+000   6.71203904E-006   39089.20  <-- SCF
     58  -5.05513933E+004  2.97918477E+000   4.58192525E-006   39750.53  <-- SCF
     59  -5.05513936E+004  2.97913879E+000   4.60825423E-006   40473.96  <-- SCF
     60  -5.05513938E+004  2.97934398E+000   3.64342166E-006   41107.85  <-- SCF
     61  -5.05513940E+004  2.97932595E+000   2.64219589E-006   41829.90  <-- SCF
     62  -5.05513942E+004  2.97953469E+000   2.25417425E-006   42480.53  <-- SCF
     63  -5.05513943E+004  2.97951868E+000   1.67591852E-006   43203.87  <-- SCF
     64  -5.05513944E+004  2.97970254E+000   1.61473518E-006   43847.51  <-- SCF
     65  -5.05513945E+004  2.97974051E+000   1.32204378E-006   44560.11  <-- SCF
     66  -5.05513946E+004  2.97986975E+000   7.88393804E-007   45200.35  <-- SCF
     67  -5.05513946E+004  2.97987466E+000   6.47237623E-007   45841.39  <-- SCF
     68  -5.05513946E+004  2.97999271E+000   5.46472590E-007   46477.98  <-- SCF
     69  -5.05513947E+004  2.98003509E+000   5.65995621E-007   47186.87  <-- SCF
     70  -5.05513947E+004  2.98014337E+000   4.57657336E-007   47835.75  <-- SCF
     71  -5.05513947E+004  2.98016719E+000   3.48246729E-007   48543.15  <-- SCF
------------------------------------------------------------------------ <-- SCF
 
Integrated Spin Density     =     26.0000     hbar/2
Integrated |Spin Density|   =     26.5725     hbar/2
 

     Hubbard U occupation numbers
     ----------------------------
Species   Ion   l  spin               occupancies
==================================================================
  V        1    2   up:   0.41  0.44  0.47  0.52  0.53
                    dn:   0.39  0.41  0.45  0.49  0.51
  V        2    2   up:   0.41  0.44  0.47  0.52  0.53
                    dn:   0.39  0.41  0.45  0.49  0.51
  V        3    2   up:   0.38  0.42  0.47  0.52  0.55
                    dn:   0.35  0.38  0.47  0.51  0.54
  V        4    2   up:   0.38  0.42  0.47  0.52  0.55
                    dn:   0.35  0.38  0.46  0.51  0.54
  V        5    2   up:   0.43  0.43  0.48  0.51  0.52
                    dn:   0.40  0.41  0.47  0.49  0.50
  V        6    2   up:   0.43  0.43  0.48  0.51  0.52
                    dn:   0.40  0.41  0.47  0.49  0.50
  V        7    2   up:   0.40  0.44  0.47  0.51  0.54
                    dn:   0.35  0.39  0.46  0.50  0.51
  V        8    2   up:   0.40  0.44  0.47  0.51  0.54
                    dn:   0.35  0.39  0.46  0.50  0.51
  V        9    2   up:   0.43  0.44  0.47  0.52  0.53
                    dn:   0.38  0.42  0.44  0.49  0.50
  V       10    2   up:   0.43  0.44  0.47  0.52  0.53
                    dn:   0.38  0.42  0.44  0.49  0.50
  V       11    2   up:   0.42  0.44  0.49  0.51  0.52
                    dn:   0.38  0.42  0.47  0.48  0.51
  V       12    2   up:   0.42  0.44  0.49  0.51  0.52
                    dn:   0.38  0.42  0.47  0.48  0.51
  Fe       1    2   up:   0.97  0.98  0.99  1.00  1.00
                    dn:   0.06  0.06  0.15  0.21  0.97
  Fe       2    2   up:   0.97  0.98  0.99  1.00  1.00
                    dn:   0.06  0.06  0.15  0.21  0.97
  Fe       3    2   up:   0.99  0.99  1.00  1.00  1.00
                    dn:   0.09  0.10  0.11  0.37  0.41
  Fe       4    2   up:   0.99  0.99  1.00  1.00  1.00
                    dn:   0.09  0.10  0.11  0.37  0.41
  Fe       5    2   up:   0.99  0.99  1.00  1.00  1.00
                    dn:   0.04  0.05  0.14  0.15  0.98
  Fe       6    2   up:   0.99  0.99  1.00  1.00  1.00
                    dn:   0.04  0.05  0.14  0.15  0.98
==================================================================

Final energy, E             =  -50551.39462875     eV
Final free energy (E-TS)    =  -50551.39473555     eV
(energies not corrected for finite basis set)
 
NB est. 0K energy (E-0.5TS)      =  -50551.39468215     eV
 

Writing analysis data to ml_dos.castep_bin

Writing model to ml_dos.check
 
+---------------- MEMORY AND SCRATCH DISK ESTIMATES PER PROCESS --------------+
|                                                     Memory          Disk    |
|                                               ----------------------------- |
| Approx. total storage required per process         1849.0 MB         0.0 MB |
|                                                                             |
| Requirements will fluctuate during execution and may exceed these estimates |
+-----------------------------------------------------------------------------+
 
  =====================================================================
  +                                                                   +
  +                 Calculation of Spectral Properties                +
  +                                                                   +
  + Calculation re-parallelised over 36 processes.                    +
  + There are 9 k-points distributed across 9 k-point groups.         +
  + Data distributed by G-vector(4-way), k-point(9-way), band(1-way)  +
  + Data distributed by G-vector(4-way), k-point(9-way)               +
  +                                                                   +
  =====================================================================

 Pseudo atomic calculation performed for Li 1s2 2s1

 Converged in 18 iterations to a total energy of -200.5098 eV

 Pseudo atomic calculation performed for O 2s2 2p4

 Converged in 24 iterations to a total energy of -432.3399 eV

 Pseudo atomic calculation performed for V 3s2 3p6 3d3 4s2

 Converged in 36 iterations to a total energy of -2065.8041 eV

 Pseudo atomic calculation performed for Fe 3d6 4s2

 Converged in 34 iterations to a total energy of -853.8318 eV

 Pseudo atomic calculation performed for Li 1s2 2s1

 Converged in 18 iterations to a total energy of -200.5098 eV

 Pseudo atomic calculation performed for O 2s2 2p4

 Converged in 24 iterations to a total energy of -432.3399 eV

 Pseudo atomic calculation performed for V 3s2 3p6 3d3 4s2

 Converged in 36 iterations to a total energy of -2065.8041 eV

 Pseudo atomic calculation performed for Fe 3d6 4s2

 Converged in 34 iterations to a total energy of -853.8318 eV
  Starting k-point:        1 of        1 Time:      0.00 sec  |<-- SPEC

 Pseudo atomic calculation performed for Li 1s2 2s1

 Converged in 18 iterations to a total energy of -200.5098 eV

 Pseudo atomic calculation performed for O 2s2 2p4

 Converged in 24 iterations to a total energy of -432.3399 eV

 Pseudo atomic calculation performed for V 3s2 3p6 3d3 4s2

 Converged in 36 iterations to a total energy of -2065.8041 eV

 Pseudo atomic calculation performed for Fe 3d6 4s2

 Converged in 34 iterations to a total energy of -853.8318 eV
  Starting k-point:        1 of        1 Time:    401.71 sec  |<-- SPEC

 Pseudo atomic calculation performed for Li 1s2 2s1

 Converged in 18 iterations to a total energy of -200.5098 eV

 Pseudo atomic calculation performed for O 2s2 2p4

 Converged in 24 iterations to a total energy of -432.3399 eV

 Pseudo atomic calculation performed for V 3s2 3p6 3d3 4s2

 Converged in 36 iterations to a total energy of -2065.8041 eV

 Pseudo atomic calculation performed for Fe 3d6 4s2

 Converged in 34 iterations to a total energy of -853.8318 eV
  Check-pointing spectral run                                 |<-- SPEC
  Total time to compute matrix elements            811.88 sec |<-- SPEC
  
  + Calculation re-parallelised over 40 processes.                    +
  + Data distributed by G-vector(40-way)                              +

 Pseudo atomic calculation performed for Li 1s2 2s1

 Converged in 18 iterations to a total energy of -200.5098 eV

 Pseudo atomic calculation performed for O 2s2 2p4

 Converged in 24 iterations to a total energy of -432.3399 eV

 Pseudo atomic calculation performed for V 3s2 3p6 3d3 4s2

 Converged in 36 iterations to a total energy of -2065.8041 eV

 Pseudo atomic calculation performed for Fe 3d6 4s2

 Converged in 34 iterations to a total energy of -853.8318 eV

 ************************** Forces **************************
 *                                                          *
 *               Cartesian components (eV/A)                *
 * -------------------------------------------------------- *
 *                         x            y            z      *
 *                                                          *
 * Li              1     -0.11605     -0.05180     -0.05705 *
 * Li              2     -0.09983     -0.07999     -0.05727 *
 * Li              3      0.13373      0.10005     -0.13431 *
 * Li              4      0.15036      0.07126     -0.13248 *
 * Li              5     -0.07060     -0.13491      0.00875 *
 * Li              6     -0.15131      0.00330      0.00704 *
 * Li              7      0.03952      0.10426     -0.06928 *
 * Li              8      0.10646     -0.01029     -0.06961 *
 * Li              9     -0.08893      0.04923      0.08891 *
 * Li             10      0.00157     -0.10035      0.08853 *
 * O               1      0.21393      0.34828      0.10433 *
 * O               2      0.41200      0.02554      0.10113 *
 * O               3      0.66046     -0.01079      0.20372 *
 * O               4      0.30881      0.58672      0.20481 *
 * O               5      0.26538     -0.11814      0.39932 *
 * O               6      0.02809      0.28122      0.39686 *
 * O               7      0.15100      0.02996      0.53688 *
 * O               8      0.09656      0.11480      0.53718 *
 * O               9      0.20870     -2.20672     -1.43440 *
 * O              10     -1.83469      1.23851     -1.42453 *
 * O              11      0.06457     -0.57699     -0.74876 *
 * O              12     -0.47078      0.32829     -0.74454 *
 * O              13      0.41607      0.35371      0.06504 *
 * O              14      0.51382      0.19672      0.05915 *
 * O              15      0.26320      0.84352      0.48013 *
 * O              16      0.86749     -0.17042      0.48161 *
 * O              17      1.29378      1.16415      0.65538 *
 * O              18      1.63569      0.57560      0.65432 *
 * O              19      0.82891     -0.50425      0.12562 *
 * O              20     -0.04660      0.97028      0.12791 *
 * O              21     -0.06343     -0.99138     -0.27751 *
 * O              22     -0.90305      0.42149     -0.27735 *
 * O              23      0.08353     -0.14006      0.07032 *
 * O              24     -0.08725      0.13736      0.07354 *
 * O              25     -0.42501      0.37244      0.26512 *
 * O              26      0.12331     -0.54873      0.26501 *
 * O              27     -0.77966      0.01157     -0.31812 *
 * O              28     -0.36731     -0.69004     -0.31473 *
 * O              29     -0.86789      0.71190     -1.89979 *
 * O              30      0.21360     -1.10983     -1.89716 *
 * O              31      1.63720     -1.51202      1.22814 *
 * O              32     -0.54226      2.15499      1.22456 *
 * O              33     -0.40655      0.52420      0.39140 *
 * O              34      0.25426     -0.60568      0.37603 *
 * O              35     -0.27014     -0.38357      0.19200 *
 * O              36     -0.46941     -0.04538      0.19728 *
 * O              37     -0.29496      0.04597     -0.33568 *
 * O              38     -0.10109     -0.28285     -0.32924 *
 * O              39     -2.31643     -0.31536     -0.15623 *
 * O              40     -1.39064     -1.88991     -0.15006 *
 * O              41     -0.26502     -0.13377     -0.17125 *
 * O              42     -0.24587     -0.17054     -0.16897 *
 * V               1      0.36242     -0.51537      0.60743 *
 * V               2     -0.28806      0.57120      0.61444 *
 * V               3     -0.67627      0.25804     -0.66477 *
 * V               4     -0.08776     -0.71245     -0.66713 *
 * V               5     -0.98295      0.90878     -0.50092 *
 * V               6      0.32757     -1.30123     -0.51135 *
 * V               7     -0.93932      0.19474      0.16280 *
 * V               8     -0.28211     -0.91234      0.16343 *
 * V               9      0.71792      0.32082      0.58879 *
 * V              10      0.62933      0.48968      0.58952 *
 * V              11      0.84880      1.39424      0.65556 *
 * V              12      1.63323      0.07071      0.65036 *
 * Fe              1      0.16643     -0.05233      0.05977 *
 * Fe              2      0.03194      0.18620      0.05568 *
 * Fe              3      0.17274     -0.12259     -0.17606 *
 * Fe              4     -0.03782      0.18431     -0.20890 *
 * Fe              5     -0.13884      0.34479      0.07148 *
 * Fe              6      0.24551     -0.28872      0.06815 *
 *                                                          *
 ************************************************************

 Pseudo atomic calculation performed for Li 1s2 2s1

 Converged in 18 iterations to a total energy of -200.5098 eV

 Pseudo atomic calculation performed for O 2s2 2p4

 Converged in 24 iterations to a total energy of -432.3399 eV

 Pseudo atomic calculation performed for V 3s2 3p6 3d3 4s2

 Converged in 36 iterations to a total energy of -2065.8041 eV

 Pseudo atomic calculation performed for Fe 3d6 4s2

 Converged in 34 iterations to a total energy of -853.8318 eV
Charge spilling parameter for spin component 1 = 0.16%
Charge spilling parameter for spin component 2 = 0.15%

                   Orbital Populations                  
  ---------------------------------------------------------------
     Ion    Atom   Orbital              Up        Down      Spin
  ---------------------------------------------------------------
     Li     1      S                    1.001     1.001     0.000
     Li     1      S                   -0.026    -0.023    -0.003
     Li     1      Px                   0.049     0.048     0.001
     Li     1      Py                   0.057     0.056     0.001
     Li     1      Pz                   0.069     0.070    -0.001
     Li     2      S                    1.001     1.001     0.000
     Li     2      S                   -0.026    -0.023    -0.003
     Li     2      Px                   0.044     0.044     0.001
     Li     2      Py                   0.062     0.061     0.000
     Li     2      Pz                   0.069     0.070    -0.001
     Li     3      S                    1.000     1.000    -0.000
     Li     3      S                    0.007     0.012    -0.005
     Li     3      Px                   0.040     0.043    -0.003
     Li     3      Py                   0.030     0.036    -0.006
     Li     3      Pz                   0.034     0.038    -0.004
     Li     4      S                    1.000     1.000    -0.000
     Li     4      S                    0.007     0.012    -0.005
     Li     4      Px                   0.026     0.031    -0.005
     Li     4      Py                   0.044     0.048    -0.003
     Li     4      Pz                   0.034     0.038    -0.004
     Li     5      S                    1.000     1.000    -0.000
     Li     5      S                    0.009     0.011    -0.003
     Li     5      Px                   0.033     0.035    -0.002
     Li     5      Py                   0.036     0.038    -0.003
     Li     5      Pz                   0.032     0.033    -0.002
     Li     6      S                    1.000     1.000    -0.000
     Li     6      S                    0.009     0.011    -0.003
     Li     6      Px                   0.032     0.034    -0.002
     Li     6      Py                   0.037     0.039    -0.002
     Li     6      Pz                   0.032     0.033    -0.002
     Li     7      S                    1.000     1.000     0.000
     Li     7      S                    0.004     0.008    -0.004
     Li     7      Px                   0.017     0.019    -0.002
     Li     7      Py                   0.046     0.048    -0.002
     Li     7      Pz                   0.040     0.043    -0.003
     Li     8      S                    1.000     1.000     0.000
     Li     8      S                    0.003     0.008    -0.004
     Li     8      Px                   0.034     0.035    -0.001
     Li     8      Py                   0.029     0.032    -0.002
     Li     8      Pz                   0.040     0.043    -0.003
     Li     9      S                    1.001     1.001     0.000
     Li     9      S                   -0.031    -0.015    -0.016
     Li     9      Px                   0.047     0.056    -0.009
     Li     9      Py                   0.028     0.033    -0.005
     Li     9      Pz                   0.040     0.049    -0.009
     Li    10      S                    1.001     1.001     0.000
     Li    10      S                   -0.031    -0.015    -0.016
     Li    10      Px                   0.034     0.043    -0.009
     Li    10      Py                   0.040     0.046    -0.005
     Li    10      Pz                   0.040     0.049    -0.009
      O     1      S                    0.944     0.936     0.007
      O     1      Px                   0.815     0.782     0.033
      O     1      Py                   0.773     0.757     0.015
      O     1      Pz                   0.821     0.803     0.018
      O     2      S                    0.944     0.936     0.007
      O     2      Px                   0.762     0.731     0.031
      O     2      Py                   0.827     0.809     0.018
      O     2      Pz                   0.821     0.803     0.018
      O     3      S                    0.938     0.935     0.003
      O     3      Px                   0.760     0.764    -0.004
      O     3      Py                   0.810     0.811    -0.001
      O     3      Pz                   0.820     0.816     0.004
      O     4      S                    0.938     0.935     0.003
      O     4      Px                   0.798     0.802    -0.005
      O     4      Py                   0.772     0.773    -0.001
      O     4      Pz                   0.820     0.816     0.004
      O     5      S                    0.938     0.935     0.003
      O     5      Px                   0.823     0.826    -0.003
      O     5      Py                   0.820     0.823    -0.003
      O     5      Pz                   0.763     0.766    -0.002
      O     6      S                    0.938     0.935     0.003
      O     6      Px                   0.818     0.822    -0.003
      O     6      Py                   0.825     0.827    -0.003
      O     6      Pz                   0.764     0.766    -0.002
      O     7      S                    0.937     0.930     0.007
      O     7      Px                   0.836     0.813     0.023
      O     7      Py                   0.835     0.807     0.028
      O     7      Pz                   0.768     0.757     0.011
      O     8      S                    0.937     0.930     0.007
      O     8      Px                   0.834     0.822     0.012
      O     8      Py                   0.837     0.799     0.038
      O     8      Pz                   0.768     0.757     0.011
      O     9      S                    0.937     0.932     0.005
      O     9      Px                   0.826     0.831    -0.005
      O     9      Py                   0.767     0.773    -0.005
      O     9      Pz                   0.798     0.805    -0.007
      O    10      S                    0.937     0.932     0.005
      O    10      Px                   0.792     0.797    -0.005
      O    10      Py                   0.801     0.807    -0.006
      O    10      Pz                   0.798     0.805    -0.007
      O    11      S                    0.940     0.927     0.012
      O    11      Px                   0.825     0.812     0.013
      O    11      Py                   0.780     0.748     0.032
      O    11      Pz                   0.808     0.788     0.021
      O    12      S                    0.940     0.927     0.012
      O    12      Px                   0.799     0.774     0.025
      O    12      Py                   0.806     0.787     0.019
      O    12      Pz                   0.808     0.788     0.021
      O    13      S                    0.924     0.925    -0.001
      O    13      Px                   0.775     0.778    -0.003
      O    13      Py                   0.809     0.812    -0.003
      O    13      Pz                   0.823     0.824    -0.001
      O    14      S                    0.924     0.925    -0.001
      O    14      Px                   0.780     0.784    -0.004
      O    14      Py                   0.805     0.806    -0.001
      O    14      Pz                   0.823     0.824    -0.001
      O    15      S                    0.940     0.936     0.004
      O    15      Px                   0.809     0.818    -0.009
      O    15      Py                   0.787     0.776     0.011
      O    15      Pz                   0.804     0.808    -0.004
      O    16      S                    0.940     0.936     0.004
      O    16      Px                   0.776     0.772     0.004
      O    16      Py                   0.820     0.823    -0.003
      O    16      Pz                   0.804     0.808    -0.004
      O    17      S                    0.941     0.937     0.004
      O    17      Px                   0.804     0.814    -0.009
      O    17      Py                   0.813     0.829    -0.015
      O    17      Pz                   0.770     0.773    -0.003
      O    18      S                    0.941     0.937     0.004
      O    18      Px                   0.790     0.813    -0.023
      O    18      Py                   0.828     0.830    -0.002
      O    18      Pz                   0.770     0.773    -0.003
      O    19      S                    0.940     0.940    -0.000
      O    19      Px                   0.771     0.773    -0.003
      O    19      Py                   0.788     0.787     0.001
      O    19      Pz                   0.799     0.800    -0.001
      O    20      S                    0.940     0.940    -0.000
      O    20      Px                   0.809     0.810    -0.001
      O    20      Py                   0.749     0.750    -0.001
      O    20      Pz                   0.799     0.800    -0.001
      O    21      S                    0.938     0.935     0.003
      O    21      Px                   0.814     0.817    -0.004
      O    21      Py                   0.753     0.757    -0.004
      O    21      Pz                   0.797     0.809    -0.013
      O    22      S                    0.938     0.935     0.003
      O    22      Px                   0.774     0.775    -0.001
      O    22      Py                   0.793     0.800    -0.007
      O    22      Pz                   0.797     0.810    -0.013
      O    23      S                    0.925     0.926    -0.001
      O    23      Px                   0.776     0.779    -0.002
      O    23      Py                   0.808     0.810    -0.001
      O    23      Pz                   0.816     0.817    -0.000
      O    24      S                    0.925     0.926    -0.001
      O    24      Px                   0.773     0.776    -0.003
      O    24      Py                   0.812     0.812    -0.001
      O    24      Pz                   0.816     0.817    -0.000
      O    25      S                    0.929     0.926     0.003
      O    25      Px                   0.790     0.790    -0.000
      O    25      Py                   0.805     0.804     0.001
      O    25      Pz                   0.826     0.824     0.003
      O    26      S                    0.929     0.926     0.003
      O    26      Px                   0.778     0.779    -0.001
      O    26      Py                   0.817     0.816     0.001
      O    26      Pz                   0.826     0.824     0.003
      O    27      S                    0.940     0.940    -0.000
      O    27      Px                   0.747     0.748    -0.001
      O    27      Py                   0.801     0.802    -0.001
      O    27      Pz                   0.810     0.810     0.000
      O    28      S                    0.940     0.940    -0.000
      O    28      Px                   0.800     0.801    -0.001
      O    28      Py                   0.748     0.749    -0.002
      O    28      Pz                   0.810     0.810     0.000
      O    29      S                    0.939     0.935     0.004
      O    29      Px                   0.815     0.817    -0.002
      O    29      Py                   0.804     0.817    -0.013
      O    29      Pz                   0.752     0.758    -0.007
      O    30      S                    0.939     0.934     0.005
      O    30      Px                   0.806     0.813    -0.007
      O    30      Py                   0.813     0.820    -0.007
      O    30      Pz                   0.752     0.758    -0.007
      O    31      S                    0.941     0.935     0.006
      O    31      Px                   0.789     0.786     0.003
      O    31      Py                   0.786     0.792    -0.006
      O    31      Pz                   0.802     0.812    -0.011
      O    32      S                    0.941     0.935     0.006
      O    32      Px                   0.819     0.817     0.001
      O    32      Py                   0.756     0.760    -0.004
      O    32      Pz                   0.802     0.812    -0.011
      O    33      S                    0.937     0.927     0.009
      O    33      Px                   0.822     0.811     0.011
      O    33      Py                   0.787     0.763     0.024
      O    33      Pz                   0.829     0.796     0.032
      O    34      S                    0.937     0.927     0.009
      O    34      Px                   0.813     0.786     0.027
      O    34      Py                   0.796     0.788     0.008
      O    34      Pz                   0.828     0.796     0.032
      O    35      S                    0.941     0.933     0.008
      O    35      Px                   0.809     0.782     0.028
      O    35      Py                   0.838     0.811     0.027
      O    35      Pz                   0.795     0.763     0.031
      O    36      S                    0.941     0.933     0.008
      O    36      Px                   0.810     0.802     0.008
      O    36      Py                   0.837     0.790     0.046
      O    36      Pz                   0.794     0.763     0.031
      O    37      S                    0.935     0.933     0.003
      O    37      Px                   0.814     0.820    -0.007
      O    37      Py                   0.843     0.837     0.005
      O    37      Pz                   0.765     0.767    -0.001
      O    38      S                    0.935     0.933     0.003
      O    38      Px                   0.836     0.833     0.003
      O    38      Py                   0.821     0.825    -0.004
      O    38      Pz                   0.765     0.767    -0.001
      O    39      S                    0.942     0.937     0.004
      O    39      Px                   0.750     0.760    -0.010
      O    39      Py                   0.810     0.815    -0.005
      O    39      Pz                   0.824     0.822     0.002
      O    40      S                    0.942     0.937     0.004
      O    40      Px                   0.798     0.812    -0.014
      O    40      Py                   0.761     0.762    -0.001
      O    40      Pz                   0.824     0.822     0.002
      O    41      S                    0.940     0.933     0.007
      O    41      Px                   0.773     0.741     0.032
      O    41      Py                   0.835     0.819     0.016
      O    41      Pz                   0.823     0.810     0.013
      O    42      S                    0.940     0.933     0.007
      O    42      Px                   0.828     0.794     0.033
      O    42      Py                   0.780     0.765     0.015
      O    42      Pz                   0.823     0.811     0.013
      V     1      S                    0.995     0.995    -0.000
      V     1      Px                   0.994     0.994    -0.000
      V     1      Py                   0.995     0.995    -0.000
      V     1      Pz                   0.995     0.995    -0.000
      V     1      Dzz                  0.367     0.324     0.043
      V     1      Dzy                  0.319     0.288     0.031
      V     1      Dzx                  0.342     0.323     0.019
      V     1      Dxx-yy               0.313     0.304     0.008
      V     1      Dxy                  0.322     0.287     0.035
      V     1      S                    0.108     0.105     0.003
      V     1      Px                   0.087     0.086     0.001
      V     1      Py                   0.099     0.096     0.003
      V     1      Pz                   0.072     0.071     0.001
      V     2      S                    0.995     0.995    -0.000
      V     2      Px                   0.996     0.996    -0.000
      V     2      Py                   0.994     0.994     0.000
      V     2      Pz                   0.995     0.995    -0.000
      V     2      Dzz                  0.367     0.324     0.043
      V     2      Dzy                  0.346     0.319     0.027
      V     2      Dzx                  0.315     0.293     0.021
      V     2      Dxx-yy               0.312     0.292     0.021
      V     2      Dxy                  0.322     0.300     0.022
      V     2      S                    0.108     0.105     0.003
      V     2      Px                   0.099     0.097     0.001
      V     2      Py                   0.088     0.085     0.003
      V     2      Pz                   0.072     0.071     0.001
      V     3      S                    0.995     0.995    -0.000
      V     3      Px                   0.995     0.995    -0.000
      V     3      Py                   0.995     0.995     0.000
      V     3      Pz                   0.995     0.995     0.000
      V     3      Dzz                  0.322     0.303     0.019
      V     3      Dzy                  0.329     0.296     0.033
      V     3      Dzx                  0.325     0.317     0.008
      V     3      Dxx-yy               0.321     0.317     0.004
      V     3      Dxy                  0.338     0.309     0.029
      V     3      S                    0.107     0.109    -0.002
      V     3      Px                   0.093     0.095    -0.002
      V     3      Py                   0.076     0.078    -0.002
      V     3      Pz                   0.087     0.090    -0.004
      V     4      S                    0.995     0.995    -0.000
      V     4      Px                   0.995     0.995     0.000
      V     4      Py                   0.994     0.994     0.000
      V     4      Pz                   0.995     0.995     0.000
      V     4      Dzz                  0.322     0.303     0.019
      V     4      Dzy                  0.330     0.311     0.019
      V     4      Dzx                  0.324     0.302     0.021
      V     4      Dxx-yy               0.325     0.304     0.021
      V     4      Dxy                  0.334     0.322     0.012
      V     4      S                    0.107     0.109    -0.002
      V     4      Px                   0.080     0.083    -0.003
      V     4      Py                   0.089     0.090    -0.001
      V     4      Pz                   0.087     0.090    -0.004
      V     5      S                    0.995     0.995     0.000
      V     5      Px                   0.995     0.995    -0.000
      V     5      Py                   0.995     0.995    -0.000
      V     5      Pz                   0.995     0.995    -0.000
      V     5      Dzz                  0.349     0.321     0.028
      V     5      Dzy                  0.313     0.293     0.020
      V     5      Dzx                  0.307     0.291     0.016
      V     5      Dxx-yy               0.329     0.319     0.010
      V     5      Dxy                  0.362     0.325     0.037
      V     5      S                    0.108     0.106     0.002
      V     5      Px                   0.089     0.090    -0.001
      V     5      Py                   0.076     0.077    -0.001
      V     5      Pz                   0.093     0.090     0.003
      V     6      S                    0.995     0.995     0.000
      V     6      Px                   0.995     0.995    -0.000
      V     6      Py                   0.995     0.995    -0.000
[...]
              O 24 -- V 6                    0.54        -0.00          1.79000
              O 26 -- V 12                   0.50         0.00          1.81285
              O 25 -- V 11                   0.50         0.00          1.81304
              O 24 -- V 10                   0.51         0.00          1.82201
              O 23 -- V 9                    0.51         0.00          1.82207
              O 14 -- V 1                    0.52         0.00          1.82604
              O 13 -- V 2                    0.52         0.00          1.82622
              O 13 -- V 7                    0.51        -0.00          1.83690
              O 14 -- V 8                    0.51        -0.00          1.83743
              O 25 -- V 3                    0.44        -0.00          1.86174
              O 26 -- V 4                    0.44        -0.00          1.86227
             Li 7  -- O 19                   0.26         0.00          1.93304
             Li 8  -- O 20                   0.26         0.00          1.93385
             Li 8  -- O 6                    0.19         0.00          1.96419
             Li 7  -- O 5                    0.19         0.00          1.96626
              O 11 -- Fe 3                   0.33        -0.05          1.98297
              O 12 -- Fe 4                   0.33        -0.05          1.98388
             Li 10 -- O 34                   0.18         0.01          1.98642
             Li 9  -- O 33                   0.18         0.01          1.98666
             Li 10 -- O 10                   0.09         0.00          1.99180
             Li 9  -- O 9                    0.09         0.00          1.99215
              O 9  -- Fe 1                   0.26        -0.02          2.00114
              O 33 -- Fe 4                   0.30        -0.04          2.00136
              O 10 -- Fe 2                   0.26        -0.02          2.00168
              O 34 -- Fe 3                   0.30        -0.04          2.00463
             Li 9  -- O 38                   0.16         0.00          2.00799
             Li 10 -- O 37                   0.16         0.00          2.00834
              O 35 -- Fe 3                   0.27        -0.04          2.01111
              O 36 -- Fe 4                   0.27        -0.04          2.01342
              O 18 -- Fe 2                   0.23        -0.02          2.01798
              O 17 -- Fe 1                   0.23        -0.02          2.01802
             Li 7  -- O 42                   0.22         0.00          2.01921
             Li 8  -- O 41                   0.22         0.00          2.01948
              O 40 -- Fe 2                   0.26        -0.02          2.02349
              O 39 -- Fe 1                   0.26        -0.02          2.02425
             Li 1  -- O 13                   0.12         0.00          2.03288
             Li 2  -- O 14                   0.12         0.00          2.03328
              O 31 -- Fe 1                   0.25        -0.02          2.03847
              O 32 -- Fe 2                   0.25        -0.02          2.03949
             Li 5  -- O 27                   0.18         0.00          2.03958
             Li 6  -- O 28                   0.18         0.00          2.03962
             Li 1  -- O 28                   0.15        -0.00          2.04336
             Li 2  -- O 27                   0.15        -0.00          2.04349
             Li 10 -- O 16                   0.22         0.00          2.05193
             Li 9  -- O 15                   0.22         0.00          2.05229
              O 30 -- Fe 2                   0.25        -0.02          2.06615
              O 29 -- Fe 1                   0.25        -0.02          2.06742
             Li 5  -- O 19                   0.10        -0.00          2.07970
             Li 6  -- O 20                   0.10        -0.00          2.07977
             Li 5  -- O 29                   0.12         0.00          2.08450
             Li 6  -- O 30                   0.12         0.00          2.08463
              O 7  -- Fe 4                   0.28        -0.04          2.09181
              O 8  -- Fe 3                   0.28        -0.04          2.09257
              O 4  -- Fe 5                   0.24        -0.02          2.09438
              O 3  -- Fe 6                   0.24        -0.02          2.09550
              O 2  -- Fe 4                   0.28        -0.04          2.09924
              O 1  -- Fe 3                   0.28        -0.04          2.10082
              O 5  -- Fe 6                   0.28        -0.01          2.10892
              O 6  -- Fe 5                   0.28        -0.01          2.10898
             Li 4  -- O 21                   0.12         0.00          2.10932
             Li 3  -- O 22                   0.12         0.00          2.10989
              O 41 -- Fe 3                   0.24        -0.04          2.12391
              O 42 -- Fe 4                   0.24        -0.04          2.12484
             Li 4  -- O 4                    0.16         0.00          2.13106
             Li 3  -- O 3                    0.16         0.00          2.13158
             Li 4  -- O 8                    0.13         0.00          2.13501
             Li 3  -- O 7                    0.13         0.00          2.13568
             Li 2  -- O 38                   0.12         0.00          2.14088
             Li 1  -- O 37                   0.12         0.00          2.14114
             Li 2  -- O 32                   0.12         0.00          2.14117
             Li 1  -- O 31                   0.12         0.00          2.14126
              O 38 -- Fe 6                   0.22        -0.02          2.14344
              O 37 -- Fe 5                   0.22        -0.02          2.14370
             Li 3  -- O 40                   0.12         0.00          2.15840
             Li 4  -- O 39                   0.12         0.00          2.15896
              O 25 -- Fe 6                   0.15        -0.02          2.17976
              O 26 -- Fe 5                   0.15        -0.02          2.18032
              O 22 -- Fe 6                   0.24        -0.01          2.18037
              O 21 -- Fe 5                   0.24        -0.01          2.18133
             Li 5  -- O 17                   0.10         0.00          2.23387
             Li 6  -- O 18                   0.10         0.00          2.23400
             Li 3  -- O 36                   0.10         0.00          2.25144
             Li 4  -- O 35                   0.10         0.00          2.25156
              O 15 -- Fe 6                   0.12        -0.02          2.26099
              O 16 -- Fe 5                   0.12        -0.02          2.26164
             Li 2  -- O 7                    0.04         0.00          2.37399
             Li 1  -- O 8                    0.04         0.00          2.37403
              O 15 -- Fe 1                   0.06        -0.02          2.39624
              O 16 -- Fe 2                   0.06        -0.02          2.39718
             Li 5  -- O 1                    0.04         0.00          2.44822
             Li 6  -- O 2                    0.04         0.00          2.44882
              O 15 -- O 25                  -0.03        -0.00          2.63354
              O 16 -- O 26                  -0.03        -0.00          2.63356
             Li 2  -- V 6                   -0.24        -0.01          2.65002
             Li 1  -- V 5                   -0.24        -0.01          2.65053
              O 18 -- V 4                    0.04        -0.00          2.66834
              O 17 -- V 3                    0.04        -0.00          2.66940
              O 13 -- O 17                  -0.02        -0.00          2.68837
              O 14 -- O 18                  -0.02        -0.00          2.68894
              O 17 -- O 29                  -0.04        -0.00          2.71077
              O 18 -- O 30                  -0.04        -0.00          2.71088
             Li 9  -- Fe 6                  -0.14        -0.03          2.72394
             Li 10 -- Fe 5                  -0.14        -0.03          2.72508
              O 30 -- O 34                  -0.01        -0.00          2.73423
              O 8  -- O 28                  -0.01        -0.00          2.73436
              O 7  -- O 27                  -0.01        -0.00          2.73444
              O 29 -- O 33                  -0.01        -0.00          2.73544
              O 19 -- O 35                  -0.00        -0.00          2.74408
              O 20 -- O 36                  -0.00        -0.00          2.74429
              O 9  -- O 27                  -0.00        -0.00          2.74775
              O 10 -- O 28                  -0.00        -0.00          2.74781
              O 26 -- O 36                  -0.01        -0.00          2.74944
              O 25 -- O 35                  -0.01        -0.00          2.74956
              O 35 -- O 41                  -0.04        -0.00          2.75898
              O 36 -- O 42                  -0.04        -0.00          2.75904
             Li 2  -- V 11                  -0.23        -0.01          2.77211
             Li 1  -- V 12                  -0.23        -0.01          2.77242
              O 21 -- O 41                  -0.00        -0.00          2.77904
              O 22 -- O 42                  -0.00        -0.00          2.77923
              O 32 -- O 38                  -0.01         0.00          2.78466
              O 31 -- O 37                  -0.01         0.00          2.78474
              O 35 -- V 7                   -0.02        -0.00          2.78713
              O 36 -- V 8                   -0.02        -0.00          2.78717
              O 2  -- O 33                  -0.03        -0.00          2.79040
              O 1  -- O 34                  -0.03        -0.00          2.79198
              O 12 -- O 40                  -0.00         0.00          2.80019
              O 11 -- O 39                  -0.00         0.00          2.80040
              O 2  -- O 32                  -0.00        -0.00          2.80221
              O 1  -- O 31                  -0.00        -0.00          2.80263
              O 7  -- O 36                  -0.03        -0.00          2.80625
              O 8  -- O 35                  -0.03        -0.00          2.80653
              O 13 -- O 34                  -0.01         0.00          2.81044
              O 14 -- O 33                  -0.01         0.00          2.81071
              O 13 -- O 41                  -0.01        -0.00          2.81865
              O 14 -- O 42                  -0.01        -0.00          2.81890
              O 11 -- O 23                  -0.00         0.00          2.82062
              O 5  -- O 23                  -0.01         0.00          2.82066
              O 6  -- O 24                  -0.01         0.00          2.82072
              O 12 -- O 24                  -0.00         0.00          2.82073
             Li 9  -- V 11                  -0.28        -0.01          2.82261
             Li 10 -- V 12                  -0.28        -0.01          2.82277
             Li 5  -- O 23                  -0.01         0.00          2.82609
             Li 6  -- O 24                  -0.01         0.00          2.82612
              O 17 -- O 31                  -0.03        -0.00          2.84140
              O 18 -- O 32                  -0.03        -0.00          2.84177
              O 18 -- O 22                  -0.00         0.00          2.84253
              O 17 -- O 21                  -0.00         0.00          2.84270
              O 2  -- O 38                   0.00        -0.00          2.84661
              O 1  -- O 37                   0.00        -0.00          2.84674
             Li 10 -- O 8                   -0.09        -0.00          2.84849
             Li 9  -- O 7                   -0.09        -0.00          2.84869
              O 15 -- O 19                   0.00        -0.00          2.85066
              O 16 -- O 20                   0.00        -0.00          2.85072
              O 11 -- O 35                  -0.03        -0.00          2.85157
              O 12 -- O 36                  -0.03        -0.00          2.85171
              O 8  -- O 10                  -0.00        -0.00          2.85306
              O 7  -- O 9                   -0.00        -0.00          2.85324
              O 12 -- O 33                  -0.02        -0.00          2.85925
              O 11 -- O 34                  -0.02        -0.00          2.85971
              O 10 -- O 34                  -0.02         0.00          2.86732
              O 25 -- O 27                  -0.00        -0.00          2.86734
              O 26 -- O 28                  -0.00        -0.00          2.86788
              O 9  -- O 33                  -0.02         0.00          2.86801
              O 14 -- O 27                  -0.03        -0.00          2.87070
              O 13 -- O 28                  -0.03        -0.00          2.87090
              O 4  -- O 34                   0.00        -0.00          2.87159
              O 3  -- O 33                   0.00        -0.00          2.87190
              O 22 -- O 38                  -0.03        -0.00          2.88167
              O 21 -- O 37                  -0.03        -0.00          2.88209
              O 3  -- O 14                  -0.00         0.00          2.88557
              O 4  -- O 13                  -0.00         0.00          2.88603
              O 22 -- O 25                  -0.02        -0.00          2.88862
              O 21 -- O 26                  -0.02        -0.00          2.88875
              O 20 -- O 26                  -0.00         0.00          2.89110
              O 19 -- O 25                  -0.00         0.00          2.89117
              O 5  -- O 11                   0.00         0.00          2.89248
             Li 3  -- O 24                  -0.03         0.00          2.89275
              O 1  -- O 23                  -0.00        -0.00          2.89278
              O 6  -- O 12                   0.00         0.00          2.89279
              O 2  -- O 24                  -0.00        -0.00          2.89327
             Li 4  -- O 23                  -0.03         0.00          2.89335
              O 7  -- O 42                  -0.02        -0.00          2.89473
              O 15 -- O 17                  -0.03        -0.00          2.89491
              O 8  -- O 41                  -0.02        -0.00          2.89510
              O 16 -- O 18                  -0.03        -0.00          2.89512
              O 24 -- O 32                   0.00        -0.00          2.89684
              O 23 -- O 31                   0.00        -0.00          2.89707
              O 2  -- O 12                  -0.02        -0.00          2.89932
              O 1  -- O 11                  -0.02        -0.00          2.89963
              O 10 -- O 16                  -0.02        -0.00          2.90056
              O 9  -- O 15                  -0.02        -0.00          2.90075
              O 14 -- O 29                  -0.00         0.00          2.90178
              O 13 -- O 30                  -0.00         0.00          2.90262
              O 7  -- O 25                  -0.00        -0.00          2.90425
              O 16 -- O 30                  -0.02        -0.00          2.90434
              O 8  -- O 26                  -0.00        -0.00          2.90435
              O 15 -- O 29                  -0.02        -0.00          2.90464
             Li 9  -- Fe 1                  -0.09        -0.02          2.90521
             Li 10 -- Fe 2                  -0.09        -0.02          2.90558
              O 6  -- O 40                   0.00        -0.00          2.90735
              O 5  -- O 39                   0.00        -0.00          2.90809
              O 31 -- O 39                  -0.02        -0.00          2.91210
              O 32 -- O 40                  -0.02        -0.00          2.91232
              O 9  -- O 39                  -0.02        -0.00          2.91375
              O 10 -- O 40                  -0.02        -0.00          2.91380
              O 23 -- O 39                  -0.00         0.00          2.91546
              O 24 -- O 40                  -0.00         0.00          2.91559
              O 7  -- O 33                  -0.02        -0.00          2.92196
              O 8  -- O 34                  -0.02        -0.00          2.92262
              O 24 -- O 38                   0.00        -0.00          2.92585
              O 23 -- O 37                   0.00        -0.00          2.92597
              O 9  -- O 31                  -0.02        -0.00          2.92619
              O 10 -- O 32                  -0.02        -0.00          2.92635
              O 3  -- O 25                  -0.02        -0.00          2.92714
              O 4  -- O 26                  -0.02        -0.00          2.92721
              O 4  -- O 21                  -0.02        -0.00          2.93655
              O 3  -- O 22                  -0.02        -0.00          2.93675
              O 30 -- O 40                  -0.02        -0.00          2.94242
              O 29 -- O 39                  -0.02        -0.00          2.94308
              O 11 -- O 41                  -0.02        -0.00          2.94576
              O 12 -- O 42                  -0.02        -0.00          2.94609
             Li 10 -- O 30                  -0.11        -0.01          2.94749
             Li 9  -- O 29                  -0.11        -0.01          2.94791
              O 3  -- O 29                   0.01         0.00          2.95463
              O 4  -- O 30                   0.01         0.00          2.95534
             Li 9  -- V 1                   -0.22        -0.01          2.95616
             Li 10 -- V 2                   -0.22        -0.01          2.95633
              O 18 -- O 36                  -0.03         0.00          2.95775
              O 17 -- O 35                  -0.03         0.00          2.95833
              O 13 -- O 21                   0.00        -0.00          2.96129
              O 14 -- O 22                   0.00        -0.00          2.96180
              O 18 -- O 20                  -0.02         0.00          2.96234
              O 17 -- O 19                  -0.02         0.00          2.96247
              O 3  -- O 5                   -0.02        -0.00          2.96990
              O 4  -- O 6                   -0.02        -0.00          2.97058
             Li 2  -- Li 7                  -0.26        -0.01          2.98191
             Li 1  -- Li 8                  -0.26        -0.01          2.98205
              O 10 -- O 30                  -0.02        -0.00          2.98270
              O 9  -- O 29                  -0.02        -0.00          2.98320
              O 5  -- O 38                  -0.02        -0.00          2.98938
              O 6  -- O 37                  -0.02        -0.00          2.98942
              O 2  -- O 7                   -0.02        -0.00          2.99424
              O 1  -- O 8                   -0.02        -0.00          2.99491
================================================================================


Writing analysis data to ml_dos.castep_bin

Writing model to ml_dos.check
 
 A BibTeX formatted list of references used in this run has been written to 
 ml_dos.bib
 
Initialisation time =     13.49 s
Calculation time    =  49527.93 s
Finalisation time   =      7.05 s
Total time          =  49548.46 s
Peak Memory Use     = 6322668 kB
 
Overall parallel efficiency rating: Poor (46%)
 
Data was distributed by:-
G-vector (40-way); efficiency rating: Poor (46%)
