 +-------------------------------------------------+
 |                                                 |
 |      CCC   AA    SSS  TTTTT  EEEEE  PPPP        |
 |     C     A  A  S       T    E      P   P       |
 |     C     AAAA   SS     T    EEE    PPPP        |
 |     C     A  A     S    T    E      P           |
 |      CCC  A  A  SSS     T    EEEEE  P           |
 |                                                 |
 +-------------------------------------------------+
 |                                                 |
 | Welcome to Academic Release CASTEP version 25.12|
 | Ab Initio Total Energy Program                  |
 |                                                 |
 | Authors:                                        |
 | M. Segall, M. Probert, C. Pickard, P. Hasnip,   |
 | S. Clark, K. Refson, J. R. Yates,               |
 | A. Bartok-Partay, M. Payne                      |
 |                                                 |
 | Contributors:                                   |
 | P. Lindan, P. Haynes, J. White, V. Milman,      |
 | N. Govind, M. Gibson, P. Tulip, V. Cocula,      |
 | B. Montanari, D. Quigley, M. Glover,            |
 | L. Bernasconi, A. Perlov, M. Plummer,           |
 | E. McNellis, J. Meyer, J. Gale, D. Jochym       |
 | J. Aarons, B. Walker, R. Gillen, D. Jones       |
 | T. Green, I. J. Bush, C. J. Armstrong,          |
 | E. J. Higgins, E. L. Brown, M. S. McFly,        |
 | J. Wilkins, B-C. Shih, P. J. P. Byrne,          |
 | R. J. Maurer, J. C. Womack, J. Dziedzic,        |
 | L. LeBlanc, T. K. Stenczel, J. Kermode,         |
 | S. Sturniolo, B. Shi, B. Durham, M. Evans,      |
 | M. J. Smith, A. Tamerus, Z. Hawkhead,           |
 | V. Ravindran, T. Hollins, S. A. Joyce,          |
 | R. T. Strong, A. M. Reilly, S. J. Donaldson,    |
 | J. C. A. Prentice                               |
 |                                                 |
 | Copyright (c) 2000 - 2024                       |
 |                                                 |
 |     Distributed under license from Cambridge    |
 |     Enterprise for academic use only.           |
 |                                                 |
 | Please cite                                     |
 |                                                 |
 |     "First principles methods using CASTEP"     |
 |                                                 |
 |         Zeitschrift fuer Kristallographie       |
 |           220(5-6) pp. 567-570 (2005)           |
 |                                                 |
 | S. J. Clark, M. D. Segall, C. J. Pickard,       |
 | P. J. Hasnip, M. J. Probert, K. Refson,         |
 | M. C. Payne                                     |
 |                                                 |
 |       in all publications arising from          |
 |              your use of CASTEP                 |
 |                                                 |
 +-------------------------------------------------+
 |                                                 |
 |              http://www.castep.org              |
 |                                                 |
 +-------------------------------------------------+



 Compiled for linux_x86_64_gfortran10 on Sun, 13 Jul 2025 14:49:40 -0400
 from code version git version unavailable
 Compiler: GNU Fortran 13.3.0; Optimisation: fast
 Comms   : Open MPI v5.0.3
 MATHLIBS: flexiblas (IMKL) (LAPACK version 3.12.0)
 FFT Lib : fftw3 version fftw-3.3.10-sse2-avx-avx2-avx2_128
 Fundamental constants values: CODATA 2018

 Run started: Thu, 19 Feb 2026 22:56:39 -0500
 Warning in parameters_read: presetting of magnetic moments on atoms cannot be guaranteed when metals_method /= density mixing

 Atomic calculation performed for Li: 1s2 2s1

 Converged in 47 iterations to an ae energy of -202.784 eV

   ============================================================                
   | Pseudopotential Report - Date of generation 19-02-2026   |                
   ------------------------------------------------------------                
   | Element: Li Ionic charge:  3.00 Level of theory: PBE     |                
   | Atomic Solver: Koelling-Harmon                           |                
   |                                                          |                
   |               Reference Electronic Structure             |                
   |         Orbital         Occupation         Energy        |                
   |            1s              2.000           -1.906        |                
   |            2s              1.000           -0.106        |                
   |                                                          |                
   |                 Pseudopotential Definition               |                
   |        Beta     l      e      Rc     scheme   norm       |                
   |          1      0   -1.906   1.001     qc      0         |                
   |          2      0   -0.106   1.001     qc      0         |                
   |          3      0    0.250   1.001     qc      0         |                
   |         loc     1    0.000   1.001     pn      0         |                
   |                                                          |                
   | Augmentation charge Rinner = 0.699                       |                
   | No partial core correction                               |                
   ------------------------------------------------------------                
   | "1|1.0|14|16|18|10U:20(qc=7)"                            |                
   ------------------------------------------------------------                
   |      Author: Chris J. Pickard, Cambridge University      |                
   ============================================================                

 Atomic calculation performed for O: 1s2 2s2 2p4

 Converged in 61 iterations to an ae energy of -2040.902 eV

   ============================================================                
   | Pseudopotential Report - Date of generation 19-02-2026   |                
   ------------------------------------------------------------                
   | Element: O Ionic charge:  6.00 Level of theory: PBE      |                
   | Atomic Solver: Koelling-Harmon                           |                
   |                                                          |                
   |               Reference Electronic Structure             |                
   |         Orbital         Occupation         Energy        |                
   |            2s              2.000           -0.881        |                
   |            2p              4.000           -0.332        |                
   |                                                          |                
   |                 Pseudopotential Definition               |                
   |        Beta     l      e      Rc     scheme   norm       |                
   |          1      0   -0.881   1.100     qc      0         |                
   |          2      0    0.250   1.100     qc      0         |                
   |          3      1   -0.332   1.100     qc      0         |                
   |          4      1    0.250   1.100     qc      0         |                
   |         loc     2    0.000   1.100     pn      0         |                
   |                                                          |                
   | Augmentation charge Rinner = 0.769                       |                
   | Partial core correction Rc = 0.769                       |                
   ------------------------------------------------------------                
   | "2|1.1|17|20|23|20:21(qc=8)"                             |                
   ------------------------------------------------------------                
   |      Author: Chris J. Pickard, Cambridge University      |                
   ============================================================                

 Atomic calculation performed for V: 1s2 2s2 2p6 3s2 3p6 3d3 4s2

 Converged in 81 iterations to an ae energy of -25823.733 eV

   ============================================================                
   | Pseudopotential Report - Date of generation 19-02-2026   |                
   ------------------------------------------------------------                
   | Element: V Ionic charge: 13.00 Level of theory: PBE      |                
   | Atomic Solver: Koelling-Harmon                           |                
   |                                                          |                
   |               Reference Electronic Structure             |                
   |         Orbital         Occupation         Energy        |                
   |            3s              2.000           -2.581        |                
   |            3p              6.000           -1.618        |                
   |            3d              3.000           -0.190        |                
   |            4s              2.000           -0.173        |                
   |                                                          |                
   |                 Pseudopotential Definition               |                
   |        Beta     l      e      Rc     scheme   norm       |                
   |          1      0   -2.581   1.803     qc      0         |                
   |          2      0   -0.173   1.803     qc      0         |                
   |          3      0    0.250   1.803     qc      0         |                
   |          4      1   -1.618   1.803     qc      0         |                
   |          5      1    0.250   1.803     qc      0         |                
   |          6      2   -0.190   1.803     qc      0         |                
   |          7      2    0.250   1.803     qc      0         |                
   |         loc     3    0.000   1.803     pn      0         |                
   |                                                          |                
   | Augmentation charge Rinner = 0.600                       |                
   | Partial core correction Rc = 0.600                       |                
   ------------------------------------------------------------                
   | "3|1.8|1.8|0.6|12|14|16|30U:40:31:32(qc=7)"              |                
   ------------------------------------------------------------                
   |      Author: Chris J. Pickard, Cambridge University      |                
   ============================================================                

 Atomic calculation performed for Fe: 1s2 2s2 2p6 3s2 3p6 3d6 4s2

 Converged in 96 iterations to an ae energy of -34625.102 eV

   ============================================================                
   | Pseudopotential Report - Date of generation 19-02-2026   |                
   ------------------------------------------------------------                
   | Element: Fe Ionic charge:  8.00 Level of theory: PBE     |                
   | Atomic Solver: Koelling-Harmon                           |                
   |                                                          |                
   |               Reference Electronic Structure             |                
   |         Orbital         Occupation         Energy        |                
   |            3d              6.000           -0.276        |                
   |            4s              2.000           -0.194        |                
   |                                                          |                
   |                 Pseudopotential Definition               |                
   |        Beta     l      e      Rc     scheme   norm       |                
   |          1      0   -0.194   2.399     qc      0         |                
   |          2      0    0.250   2.399     qc      0         |                
   |          3      1    0.000   2.399     qc      0         |                
   |          4      1    0.250   2.399     qc      0         |                
   |          5      2   -0.276   1.997     qc      0         |                
   |          6      2    0.250   1.997     qc      0         |                
   |         loc     3    0.000   2.399     pn      0         |                
   |                                                          |                
   | Augmentation charge Rinner = 1.000                       |                
   | Partial core correction Rc = 1.000                       |                
   ------------------------------------------------------------                
   | "3|2.4|2.4|1.0|8|9|10|40:41:32U2U2(qc=5.5)"              |                
   ------------------------------------------------------------                
   |      Author: Chris J. Pickard, Cambridge University      |                
   ============================================================                

 Pseudo atomic calculation performed for Li 1s2 2s1

 Converged in 18 iterations to a total energy of -200.5098 eV

 Pseudo atomic calculation performed for O 2s2 2p4

 Converged in 24 iterations to a total energy of -432.3399 eV

 Pseudo atomic calculation performed for V 3s2 3p6 3d3 4s2

 Converged in 36 iterations to a total energy of -2065.8041 eV

 Pseudo atomic calculation performed for Fe 3d6 4s2

 Converged in 34 iterations to a total energy of -853.8318 eV
 Calculation parallelised over 40 processes.
 Data is distributed by G-vector(40-way)

 ************************************ Title ************************************
 

 ***************************** General Parameters ******************************
  
 output verbosity                               : normal  (1)
 write checkpoint data to                       : ml_dos.check
 type of calculation                            : Electronic Spectroscopy
 stress calculation                             : off
 density difference calculation                 : off
 electron localisation func (ELF) calculation   : off
 Hirshfeld analysis                             : off
 polarisation (Berry phase) analysis            : off
 molecular orbital projected DOS                : off
 deltaSCF calculation                           : off
 unlimited duration calculation
 timing information                             : on
 memory usage estimate                          : on
 write extra output files                       : on
 write final potential to formatted file        : off
 write final density to formatted file          : off
 write BibTeX reference list                    : on
 write OTFG pseudopotential files               : on
 write electrostatic potential file             : on
 write bands file                               : on
 checkpoint writing                             : both castep_bin and check files
  
 output         length unit                     : A
 output           mass unit                     : amu
 output           time unit                     : ps
 output         charge unit                     : e
 output           spin unit                     : hbar/2
 output         energy unit                     : eV
 output          force unit                     : eV/A
 output       velocity unit                     : A/ps
 output       pressure unit                     : GPa
 output     inv_length unit                     : 1/A
 output      frequency unit                     : cm-1
 output force constant unit                     : eV/A**2
 output         volume unit                     : A**3
 output   IR intensity unit                     : (D/A)**2/amu
 output         dipole unit                     : D
 output         efield unit                     : eV/A/e
 output        entropy unit                     : J/mol/K
 output    efield chi2 unit                     : pm/V
  
 wavefunctions paging                           : none
 random number generator seed                   :  225639628
 data distribution                              : optimal for this architecture
 optimization strategy                          : balance speed and memory

 *********************** Exchange-Correlation Parameters ***********************
  
 using functional                               : Perdew Burke Ernzerhof
 relativistic treatment                         : Koelling-Harmon
 DFT+D: Semi-empirical dispersion correction    : off

 ************************* Pseudopotential Parameters **************************
  
 pseudopotential representation                 : reciprocal space
 <beta|phi> representation                      : reciprocal space
 spin-orbit coupling                            : off

 **************************** Basis Set Parameters *****************************
  
 plane wave basis set cut-off                   :   900.0000   eV
 size of standard grid                          :     2.0000
 size of   fine   gmax                          :    30.7390   1/A
 finite basis set correction                    : none

 **************************** Electronic Parameters ****************************
  
 number of  electrons                           :  474.0    
 net charge of system                           :  0.000    
 net spin   of system                           :  30.00    
 number of  up  spins                           :  252.0    
 number of down spins                           :  222.0    
 treating system as spin-polarized
 number of bands                                :        302
 electron temperature                           :     0.0000   K

 ********************* Electronic Minimization Parameters **********************
  
 Method: Treating system as metallic with ensemble DFT treatment of electrons,
         and number of  SD  steps               :          1
         and number of  CG  steps               :          4
  
 total energy / atom convergence tol.           : 0.1000E-05   eV
 max force / atom convergence tol.              : ignored
 convergence tolerance window                   :          3   cycles
 max. number of SCF cycles                      :        100
 number of fixed-spin iterations                :         10
 smearing scheme                                : Gaussian
 smearing width                                 : 0.2000       eV
 Fermi energy convergence tolerance             : 0.2721E-13   eV
 number of occupancy cycles                     :          6
 periodic dipole correction                     : NONE

 *********************** Population Analysis Parameters ************************
  
 Population analysis with cutoff                :  3.000       A
 Population analysis output                     : summary and pdos components
 Partial DOS weights calculated

 ********************* Electronic Spectroscopy Parameters **********************
  
 electronic spectroscopy with theory level      : DFT       
 spectroscopy calculation                       : density of states
 max. number of iterations                      :         60
 max. steps per iteration                       :          5
 number of bands / k-point                      :        389
 band convergence tolerance                     : 0.1000E-05   eV
 write orbitals file                            : off

 *******************************************************************************
  

                           -------------------------------
                                      Unit Cell
                           -------------------------------
        Real Lattice(A)                      Reciprocal Lattice(1/A)
     8.0357460     0.0000000     0.0000000        0.781904419  -0.405810310   0.047093683
     3.7019630     7.1328430     0.0000000        0.000000000   0.880880920   0.047012638
    -1.2699380    -0.7708140    14.4428260        0.000000000   0.000000000   0.435038496

                       Lattice parameters(A)       Cell Angles
                    a =      8.035746          alpha =   95.014839
                    b =      8.036291          beta  =   95.017911
                    c =     14.519026          gamma =   62.570577

                       Current cell volume =           827.829779       A**3
                                   density =             2.005230   AMU/A**3
                                           =             3.329762     g/cm^3

                           -------------------------------
                                     Cell Contents
                           -------------------------------
                         Total number of ions in cell =   66
                      Total number of species in cell =    4
                        Max number of any one species =   42

            xxxxxxxxxxxxxxxxxxxxxxxxxxxxxxxxxxxxxxxxxxxxxxxxxxxxxxxxxxxx
            x  Element    Atom        Fractional coordinates of atoms  x
            x            Number           u          v          w      x
            x----------------------------------------------------------x
            x  Li           1         0.972862   0.300926   0.721587   x 
            x  Li           2         0.300626   0.972707   0.221673   x 
            x  Li           3         0.026704   0.647988   0.034129   x 
            x  Li           4         0.648085   0.026737   0.534180   x 
            x  Li           5         0.342558   0.704311   0.371895   x 
            x  Li           6         0.704532   0.342685   0.871753   x 
            x  O            1         0.157913   0.804470   0.485832   x 
            x  O            2         0.804581   0.157961   0.985767   x 
            x  O            3         0.172235   0.478744   0.147419   x 
            x  O            4         0.478819   0.172271   0.647409   x 
            x  O            5         0.241727   0.232454   0.286236   x 
            x  O            6         0.232504   0.241843   0.786229   x 
            x  O            7         0.906034   0.882026   0.118584   x 
            x  O            8         0.882124   0.905885   0.618607   x 
            x  O            9         0.788429   0.070625   0.292326   x 
            x  O           10         0.070547   0.788496   0.792394   x 
            x  O           11         0.142450   0.462563   0.446507   x 
            x  O           12         0.462750   0.142313   0.946460   x 
            x  O           13         0.624403   0.428883   0.623410   x 
            x  O           14         0.428634   0.624695   0.123466   x 
            x  O           15         0.831420   0.417028   0.306090   x 
            x  O           16         0.417050   0.831423   0.806085   x 
            x  O           17         0.620278   0.560793   0.442693   x 
            x  O           18         0.560831   0.620446   0.942771   x 
            x  O           19         0.532275   0.807454   0.306950   x 
            x  O           20         0.807430   0.532394   0.806951   x 
            x  O           21         0.525323   0.811028   0.607480   x 
            x  O           22         0.810910   0.525254   0.107568   x 
            x  O           23         0.278694   0.069848   0.457654   x 
            x  O           24         0.070048   0.278707   0.957712   x 
            x  O           25         0.914657   0.672557   0.277935   x 
            x  O           26         0.672566   0.914795   0.777968   x 
            x  O           27         0.165691   0.839502   0.269866   x 
            x  O           28         0.839715   0.165732   0.769758   x 
            x  O           29         0.455166   0.452203   0.295269   x 
            x  O           30         0.452347   0.455113   0.795306   x 
            x  O           31         0.891439   0.186636   0.476048   x 
            x  O           32         0.186708   0.891448   0.976026   x 
            x  O           33         0.556662   0.236929   0.130583   x 
            x  O           34         0.236639   0.556667   0.630768   x 
            x  O           35         0.789244   0.780481   0.454893   x 
            x  O           36         0.780648   0.789256   0.954883   x 
            x  O           37         0.151169   0.076072   0.635447   x 
            x  O           38         0.076014   0.151098   0.135424   x 
            x  O           39         0.529312   0.217283   0.433742   x 
            x  O           40         0.217470   0.529198   0.933778   x 
            x  O           41         0.897895   0.533982   0.595300   x 
            x  O           42         0.534147   0.897910   0.095269   x 
            x  V            1         0.400540   0.444162   0.177236   x 
            x  V            2         0.444064   0.400597   0.677270   x 
            x  V            3         0.738810   0.666009   0.355439   x 
            x  V            4         0.665993   0.738940   0.855472   x 
            x  V            5         0.111423   0.034436   0.517254   x 
            x  V            6         0.034456   0.111479   0.017229   x 
            x  V            7         0.669199   0.589586   0.566186   x 
            x  V            8         0.589519   0.669250   0.066217   x 
            x  V            9         0.301602   0.251109   0.403336   x 
            x  V           10         0.251274   0.301580   0.903334   x 
            x  V           11         0.946766   0.867963   0.239098   x 
            x  V           12         0.868064   0.946742   0.739109   x 
            x  Fe           1         0.698051   0.296958   0.371430   x 
            x  Fe           2         0.296946   0.698117   0.871440   x 
            x  Fe           3         0.024864   0.674357   0.539582   x 
            x  Fe           4         0.674410   0.024943   0.039560   x 
            x  Fe           5         0.396433   0.008299   0.709172   x 
            x  Fe           6         0.008116   0.396454   0.209161   x 
            xxxxxxxxxxxxxxxxxxxxxxxxxxxxxxxxxxxxxxxxxxxxxxxxxxxxxxxxxxxx


                         No user defined ionic velocities

                           -------------------------------
                                   Details of Species
                           -------------------------------

                               Mass of species in AMU
                                    Li    6.9410000
                                    O   15.9994000
                                    V   50.9415000
                                    Fe   55.8450000

                          Electric Quadrupole Moment (Barn)
                                    Li   -0.0401000 Isotope   7
                                    O   -0.0255800 Isotope  17
                                    V   -0.0520000 Isotope  51
                                    Fe    0.1600000 Isotope  57
         xxxxxxxxxxxxxxxxxxxxxxxxxxxxxxxxxxxxxxxxxxxxxxxxxxxxxxxxxxxxxxxxxxxxxx
         |  Element    Atom         Initial            Initial magnetic       |
         |            Number    spin polarization        moment (uB)     Fix? |
         |--------------------------------------------------------------------|
         | Li             1         0.000000              0.000       F       |
         | Li             2         0.000000              0.000       F       |
         | Li             3         0.000000              0.000       F       |
         | Li             4         0.000000              0.000       F       |
         | Li             5         0.000000              0.000       F       |
         | Li             6         0.000000              0.000       F       |
         | O              1         0.000000              0.000       F       |
         | O              2         0.000000              0.000       F       |
         | O              3         0.000000              0.000       F       |
         | O              4         0.000000              0.000       F       |
         | O              5         0.000000              0.000       F       |
         | O              6         0.000000              0.000       F       |
         | O              7         0.000000              0.000       F       |
         | O              8         0.000000              0.000       F       |
         | O              9         0.000000              0.000       F       |
         | O             10         0.000000              0.000       F       |
         | O             11         0.000000              0.000       F       |
         | O             12         0.000000              0.000       F       |
         | O             13         0.000000              0.000       F       |
         | O             14         0.000000              0.000       F       |
         | O             15         0.000000              0.000       F       |
         | O             16         0.000000              0.000       F       |
         | O             17         0.000000              0.000       F       |
         | O             18         0.000000              0.000       F       |
         | O             19         0.000000              0.000       F       |
         | O             20         0.000000              0.000       F       |
         | O             21         0.000000              0.000       F       |
         | O             22         0.000000              0.000       F       |
         | O             23         0.000000              0.000       F       |
         | O             24         0.000000              0.000       F       |
         | O             25         0.000000              0.000       F       |
         | O             26         0.000000              0.000       F       |
         | O             27         0.000000              0.000       F       |
         | O             28         0.000000              0.000       F       |
         | O             29         0.000000              0.000       F       |
         | O             30         0.000000              0.000       F       |
         | O             31         0.000000              0.000       F       |
         | O             32         0.000000              0.000       F       |
         | O             33         0.000000              0.000       F       |
         | O             34         0.000000              0.000       F       |
         | O             35         0.000000              0.000       F       |
         | O             36         0.000000              0.000       F       |
         | O             37         0.000000              0.000       F       |
         | O             38         0.000000              0.000       F       |
         | O             39         0.000000              0.000       F       |
         | O             40         0.000000              0.000       F       |
         | O             41         0.000000              0.000       F       |
         | O             42         0.000000              0.000       F       |
         | V              1         0.000000              0.000       F       |
         | V              2         0.000000              0.000       F       |
         | V              3         0.000000              0.000       F       |
         | V              4         0.000000              0.000       F       |
         | V              5         0.000000              0.000       F       |
         | V              6         0.000000              0.000       F       |
         | V              7         0.000000              0.000       F       |
         | V              8         0.000000              0.000       F       |
         | V              9         0.000000              0.000       F       |
         | V             10         0.000000              0.000       F       |
         | V             11         0.000000              0.000       F       |
         | V             12         0.000000              0.000       F       |
         | Fe             1         0.625000              5.000       F       |
         | Fe             2         0.625000              5.000       F       |
         | Fe             3         0.625000              5.000       F       |
         | Fe             4         0.625000              5.000       F       |
         | Fe             5         0.625000              5.000       F       |
         | Fe             6         0.625000              5.000       F       |
         xxxxxxxxxxxxxxxxxxxxxxxxxxxxxxxxxxxxxxxxxxxxxxxxxxxxxxxxxxxxxxxxxxxxxx



         Quantisation axis:    0.00000   0.00000   1.00000

         Units for Hubbard U values are eV
         xxxxxxxxxxxxxxxxxxxxxxxxxxxxxxxxxxxxxxxxxxxxxxxxxxxxxxxxxxxxxxxxxxxx
         |  Element     Atom     Hubbard U   values by orbital type         |
         |             Number      s          p          d          f       |
         |------------------------------------------------------------------|
         |Li            1         0.00000    0.00000    0.00000    0.00000  |
         |Li            2         0.00000    0.00000    0.00000    0.00000  |
         |Li            3         0.00000    0.00000    0.00000    0.00000  |
         |Li            4         0.00000    0.00000    0.00000    0.00000  |
         |Li            5         0.00000    0.00000    0.00000    0.00000  |
         |Li            6         0.00000    0.00000    0.00000    0.00000  |
         |O             1         0.00000    0.00000    0.00000    0.00000  |
         |O             2         0.00000    0.00000    0.00000    0.00000  |
         |O             3         0.00000    0.00000    0.00000    0.00000  |
         |O             4         0.00000    0.00000    0.00000    0.00000  |
         |O             5         0.00000    0.00000    0.00000    0.00000  |
         |O             6         0.00000    0.00000    0.00000    0.00000  |
         |O             7         0.00000    0.00000    0.00000    0.00000  |
         |O             8         0.00000    0.00000    0.00000    0.00000  |
         |O             9         0.00000    0.00000    0.00000    0.00000  |
         |O            10         0.00000    0.00000    0.00000    0.00000  |
         |O            11         0.00000    0.00000    0.00000    0.00000  |
         |O            12         0.00000    0.00000    0.00000    0.00000  |
         |O            13         0.00000    0.00000    0.00000    0.00000  |
         |O            14         0.00000    0.00000    0.00000    0.00000  |
         |O            15         0.00000    0.00000    0.00000    0.00000  |
         |O            16         0.00000    0.00000    0.00000    0.00000  |
         |O            17         0.00000    0.00000    0.00000    0.00000  |
         |O            18         0.00000    0.00000    0.00000    0.00000  |
         |O            19         0.00000    0.00000    0.00000    0.00000  |
         |O            20         0.00000    0.00000    0.00000    0.00000  |
         |O            21         0.00000    0.00000    0.00000    0.00000  |
         |O            22         0.00000    0.00000    0.00000    0.00000  |
         |O            23         0.00000    0.00000    0.00000    0.00000  |
         |O            24         0.00000    0.00000    0.00000    0.00000  |
         |O            25         0.00000    0.00000    0.00000    0.00000  |
         |O            26         0.00000    0.00000    0.00000    0.00000  |
         |O            27         0.00000    0.00000    0.00000    0.00000  |
         |O            28         0.00000    0.00000    0.00000    0.00000  |
         |O            29         0.00000    0.00000    0.00000    0.00000  |
         |O            30         0.00000    0.00000    0.00000    0.00000  |
         |O            31         0.00000    0.00000    0.00000    0.00000  |
         |O            32         0.00000    0.00000    0.00000    0.00000  |
         |O            33         0.00000    0.00000    0.00000    0.00000  |
         |O            34         0.00000    0.00000    0.00000    0.00000  |
         |O            35         0.00000    0.00000    0.00000    0.00000  |
         |O            36         0.00000    0.00000    0.00000    0.00000  |
         |O            37         0.00000    0.00000    0.00000    0.00000  |
         |O            38         0.00000    0.00000    0.00000    0.00000  |
         |O            39         0.00000    0.00000    0.00000    0.00000  |
         |O            40         0.00000    0.00000    0.00000    0.00000  |
         |O            41         0.00000    0.00000    0.00000    0.00000  |
         |O            42         0.00000    0.00000    0.00000    0.00000  |
         |V             1         0.00000    0.00000    3.25000    0.00000  |
         |V             2         0.00000    0.00000    3.25000    0.00000  |
         |V             3         0.00000    0.00000    3.25000    0.00000  |
         |V             4         0.00000    0.00000    3.25000    0.00000  |
         |V             5         0.00000    0.00000    3.25000    0.00000  |
         |V             6         0.00000    0.00000    3.25000    0.00000  |
         |V             7         0.00000    0.00000    3.25000    0.00000  |
         |V             8         0.00000    0.00000    3.25000    0.00000  |
         |V             9         0.00000    0.00000    3.25000    0.00000  |
         |V            10         0.00000    0.00000    3.25000    0.00000  |
         |V            11         0.00000    0.00000    3.25000    0.00000  |
         |V            12         0.00000    0.00000    3.25000    0.00000  |
         |Fe            1         0.00000    0.00000    5.30000    0.00000  |
         |Fe            2         0.00000    0.00000    5.30000    0.00000  |
         |Fe            3         0.00000    0.00000    5.30000    0.00000  |
         |Fe            4         0.00000    0.00000    5.30000    0.00000  |
         |Fe            5         0.00000    0.00000    5.30000    0.00000  |
         |Fe            6         0.00000    0.00000    5.30000    0.00000  |
         xxxxxxxxxxxxxxxxxxxxxxxxxxxxxxxxxxxxxxxxxxxxxxxxxxxxxxxxxxxxxxxxxxxx


                          Files used for pseudopotentials:
                                    Li 1|1.0|14|16|18|10U:20(qc=7)
                                    O 2|1.1|17|20|23|20:21(qc=8)
                                    V 3|1.8|1.8|0.6|12|14|16|30U:40:31:32(qc=7)
                                    Fe 3|2.4|2.4|1.0|8|9|10|40:41:32U2U2(qc=5.5)

                           -------------------------------
                              k-Points For BZ Sampling
                           -------------------------------
                       MP grid size for SCF calculation is  3  3  2
                            with an offset of   0.000  0.000  0.000
                       Number of kpoints used =             9

                           -------------------------------
                               Symmetry and Constraints
                           -------------------------------

                      Maximum deviation from symmetry =  0.00000         ANG

                      Number of symmetry operations   =           1
                      Number of ionic constraints     =           3
                      Point group of crystal =     1: C1, 1, 1
                      Space group of crystal =     1: P1, P 1

             Set iprint > 1 for details on symmetry rotations/translations

                         Centre of mass is constrained
             Set iprint > 2 for details of linear ionic constraints

                         Number of cell constraints= 0
                         Cell constraints are:  1 2 3 4 5 6

                         External pressure/stress (GPa)
                          0.00000   0.00000   0.00000
                                    0.00000   0.00000
                                              0.00000
 
+---------------- MEMORY AND SCRATCH DISK ESTIMATES PER PROCESS --------------+
|                                                     Memory          Disk    |
| Baseline code, static data and system overhead      813.0 MB         0.0 MB |
| BLAS internal memory storage                          0.0 MB         0.0 MB |
| Model and support data                              556.3 MB         0.0 MB |
| Electronic energy minimisation requirements         675.3 MB         0.0 MB |
| Force calculation requirements                        6.4 MB         0.0 MB |
|                                               ----------------------------- |
| Approx. total storage required per process         2044.6 MB         0.0 MB |
|                                                                             |
| Requirements will fluctuate during execution and may exceed these estimates |
+-----------------------------------------------------------------------------+
Calculating approximate eigenstates for fixed initial Hamiltonian
Cut-off for approx. calculation is  605.395 eV
Resetting cut-off to  900.000 eV
Improving states further at cut-off of  900.000 eV
Calculating total energy with cut-off of  900.000 eV.

 Pseudo atomic calculation performed for Li 1s2 2s1

 Converged in 18 iterations to a total energy of -200.5098 eV

 Pseudo atomic calculation performed for O 2s2 2p4

 Converged in 24 iterations to a total energy of -432.3399 eV

 Pseudo atomic calculation performed for V 3s2 3p6 3d3 4s2

 Converged in 36 iterations to a total energy of -2065.8041 eV

 Pseudo atomic calculation performed for Fe 3d6 4s2

 Converged in 34 iterations to a total energy of -853.8318 eV
------------------------------------------------------------------------ <-- SCF
SCF loop      Energy           Fermi           Energy gain       Timer   <-- SCF
                               energy          per atom          (sec)   <-- SCF
------------------------------------------------------------------------ <-- SCF
Initial  -4.72569790E+004  4.76581931E+000                       235.90  <-- SCF
      1  -4.97169672E+004  3.10611868E+000   3.72725478E+001     898.32  <-- SCF
      2  -4.97784897E+004  2.61745428E+000   9.32159320E-001    1417.65  <-- SCF
      3  -4.97820710E+004  2.54822623E+000   5.42625526E-002    1851.76  <-- SCF
      4  -4.97822359E+004  2.54822623E+000   2.49860294E-003    2248.30  <-- SCF
      5  -4.97822359E+004  2.54822623E+000   0.00000000E+000    2656.64  <-- SCF
      6  -4.97822359E+004  2.54822623E+000   0.00000000E+000    3087.70  <-- SCF
      7  -4.97297144E+004  2.62581731E+000  -7.95780759E-001    3659.75  <-- SCF
      8  -4.97308480E+004  2.56024213E+000   1.71759906E-002    4075.62  <-- SCF
      9  -4.97309248E+004  2.56509145E+000   1.16331598E-003    4421.20  <-- SCF
     10  -4.97309320E+004  2.56150979E+000   1.08621226E-004    4785.85  <-- SCF
     11  -4.97309328E+004  2.56224488E+000   1.31198951E-005    5121.16  <-- SCF
     12  -4.97309329E+004  2.56178539E+000   1.88352233E-006    5451.71  <-- SCF
     13  -4.97309330E+004  2.56186310E+000   2.88931322E-007    5788.87  <-- SCF
     14  -4.97309330E+004  2.56180165E+000   4.92077394E-008    6146.85  <-- SCF
------------------------------------------------------------------------ <-- SCF
 
Integrated Spin Density     =     30.0000     hbar/2
Integrated |Spin Density|   =     30.0871     hbar/2
 

     Hubbard U occupation numbers
     ----------------------------
Species   Ion   l  spin               occupancies
==================================================================
  V        1    2   up:   0.42  0.44  0.47  0.51  0.53
                    dn:   0.39  0.42  0.45  0.49  0.50
  V        2    2   up:   0.42  0.44  0.47  0.51  0.53
                    dn:   0.39  0.42  0.45  0.49  0.50
  V        3    2   up:   0.34  0.42  0.51  0.51  0.54
                    dn:   0.31  0.41  0.49  0.51  0.52
  V        4    2   up:   0.34  0.42  0.51  0.51  0.54
                    dn:   0.31  0.41  0.49  0.51  0.52
  V        5    2   up:   0.42  0.44  0.48  0.52  0.52
                    dn:   0.37  0.41  0.46  0.49  0.51
  V        6    2   up:   0.42  0.44  0.48  0.52  0.52
                    dn:   0.37  0.41  0.46  0.49  0.51
  V        7    2   up:   0.41  0.44  0.48  0.51  0.52
                    dn:   0.39  0.39  0.46  0.49  0.51
  V        8    2   up:   0.41  0.44  0.48  0.51  0.52
                    dn:   0.39  0.39  0.46  0.49  0.51
  V        9    2   up:   0.42  0.43  0.47  0.51  0.53
                    dn:   0.38  0.42  0.45  0.49  0.50
  V       10    2   up:   0.42  0.43  0.47  0.51  0.53
                    dn:   0.38  0.42  0.45  0.49  0.50
  V       11    2   up:   0.42  0.43  0.47  0.51  0.52
                    dn:   0.39  0.41  0.45  0.49  0.51
  V       12    2   up:   0.42  0.43  0.47  0.51  0.52
                    dn:   0.39  0.41  0.45  0.49  0.51
  Fe       1    2   up:   0.99  0.99  1.00  1.00  1.00
                    dn:   0.10  0.11  0.12  0.38  0.39
  Fe       2    2   up:   0.99  0.99  1.00  1.00  1.00
                    dn:   0.10  0.11  0.12  0.38  0.39
  Fe       3    2   up:   0.99  0.99  1.00  1.00  1.00
                    dn:   0.10  0.11  0.11  0.38  0.41
  Fe       4    2   up:   0.99  0.99  1.00  1.00  1.00
                    dn:   0.10  0.11  0.11  0.38  0.41
  Fe       5    2   up:   0.99  0.99  1.00  1.00  1.00
                    dn:   0.09  0.11  0.13  0.37  0.40
  Fe       6    2   up:   0.99  0.99  1.00  1.00  1.00
                    dn:   0.09  0.11  0.13  0.37  0.40
==================================================================

Final energy, E             =  -49730.93297208     eV
Final free energy (E-TS)    =  -49730.93297208     eV
(energies not corrected for finite basis set)
 
NB est. 0K energy (E-0.5TS)      =  -49730.93297208     eV
 

Writing analysis data to ml_dos.castep_bin

Writing model to ml_dos.check
 
+---------------- MEMORY AND SCRATCH DISK ESTIMATES PER PROCESS --------------+
|                                                     Memory          Disk    |
|                                               ----------------------------- |
| Approx. total storage required per process         1605.5 MB         0.0 MB |
|                                                                             |
| Requirements will fluctuate during execution and may exceed these estimates |
+-----------------------------------------------------------------------------+
 
  =====================================================================
  +                                                                   +
  +                 Calculation of Spectral Properties                +
  +                                                                   +
  + Calculation re-parallelised over 36 processes.                    +
  + There are 9 k-points distributed across 9 k-point groups.         +
  + Data distributed by G-vector(4-way), k-point(9-way), band(1-way)  +
  + Data distributed by G-vector(4-way), k-point(9-way)               +
  +                                                                   +
  =====================================================================

 Pseudo atomic calculation performed for Li 1s2 2s1

 Converged in 18 iterations to a total energy of -200.5098 eV

 Pseudo atomic calculation performed for O 2s2 2p4

 Converged in 24 iterations to a total energy of -432.3399 eV

 Pseudo atomic calculation performed for V 3s2 3p6 3d3 4s2

 Converged in 36 iterations to a total energy of -2065.8041 eV

 Pseudo atomic calculation performed for Fe 3d6 4s2

 Converged in 34 iterations to a total energy of -853.8318 eV

 Pseudo atomic calculation performed for Li 1s2 2s1

 Converged in 18 iterations to a total energy of -200.5098 eV

 Pseudo atomic calculation performed for O 2s2 2p4

 Converged in 24 iterations to a total energy of -432.3399 eV

 Pseudo atomic calculation performed for V 3s2 3p6 3d3 4s2

 Converged in 36 iterations to a total energy of -2065.8041 eV

 Pseudo atomic calculation performed for Fe 3d6 4s2

 Converged in 34 iterations to a total energy of -853.8318 eV
  Starting k-point:        1 of        1 Time:      0.00 sec  |<-- SPEC

 Pseudo atomic calculation performed for Li 1s2 2s1

 Converged in 18 iterations to a total energy of -200.5098 eV

 Pseudo atomic calculation performed for O 2s2 2p4

 Converged in 24 iterations to a total energy of -432.3399 eV

 Pseudo atomic calculation performed for V 3s2 3p6 3d3 4s2

 Converged in 36 iterations to a total energy of -2065.8041 eV

 Pseudo atomic calculation performed for Fe 3d6 4s2

 Converged in 34 iterations to a total energy of -853.8318 eV
  Starting k-point:        1 of        1 Time:    333.90 sec  |<-- SPEC

 Pseudo atomic calculation performed for Li 1s2 2s1

 Converged in 18 iterations to a total energy of -200.5098 eV

 Pseudo atomic calculation performed for O 2s2 2p4

 Converged in 24 iterations to a total energy of -432.3399 eV

 Pseudo atomic calculation performed for V 3s2 3p6 3d3 4s2

 Converged in 36 iterations to a total energy of -2065.8041 eV

 Pseudo atomic calculation performed for Fe 3d6 4s2

 Converged in 34 iterations to a total energy of -853.8318 eV
  Check-pointing spectral run                                 |<-- SPEC
  Total time to compute matrix elements            667.94 sec |<-- SPEC
  
  + Calculation re-parallelised over 40 processes.                    +
  + Data distributed by G-vector(40-way)                              +

 Pseudo atomic calculation performed for Li 1s2 2s1

 Converged in 18 iterations to a total energy of -200.5098 eV

 Pseudo atomic calculation performed for O 2s2 2p4

 Converged in 24 iterations to a total energy of -432.3399 eV

 Pseudo atomic calculation performed for V 3s2 3p6 3d3 4s2

 Converged in 36 iterations to a total energy of -2065.8041 eV

 Pseudo atomic calculation performed for Fe 3d6 4s2

 Converged in 34 iterations to a total energy of -853.8318 eV

 ************************** Forces **************************
 *                                                          *
 *               Cartesian components (eV/A)                *
 * -------------------------------------------------------- *
 *                         x            y            z      *
 *                                                          *
 * Li              1     -0.01208      0.00986     -0.00589 *
 * Li              2      0.00545     -0.01292     -0.00635 *
 * Li              3     -0.00519     -0.00935      0.00881 *
 * Li              4     -0.01180     -0.00159      0.00688 *
 * Li              5     -0.01030     -0.00261      0.01840 *
 * Li              6     -0.00659     -0.00918      0.01847 *
 * O               1      0.24397      0.61750      0.11191 *
 * O               2      0.64829     -0.06598      0.10878 *
 * O               3      0.77410     -0.04235      0.07048 *
 * O               4      0.31640      0.70498      0.07058 *
 * O               5      0.21518     -0.09960      0.74720 *
 * O               6      0.01041      0.23634      0.74364 *
 * O               7      0.12441     -0.17853      0.64201 *
 * O               8     -0.10248      0.19527      0.64036 *
 * O               9      0.27845     -0.93171     -0.53208 *
 * O              10     -0.68681      0.66130     -0.52560 *
 * O              11      0.31298     -0.89872     -0.43666 *
 * O              12     -0.65637      0.69458     -0.44098 *
 * O              13     -0.00993      0.28632     -0.07567 *
 * O              14      0.25298     -0.13839     -0.07814 *
 * O              15      0.03332      0.40941      0.24665 *
 * O              16      0.37795     -0.15486      0.24479 *
 * O              17      0.11357      0.07421      0.39056 *
 * O              18      0.11452      0.06244      0.37748 *
 * O              19      0.68734     -0.60847      0.43688 *
 * O              20     -0.22646      0.89652      0.44211 *
 * O              21      0.19504     -0.84349     -0.42548 *
 * O              22     -0.65899      0.56342     -0.43314 *
 * O              23     -0.16843      0.18374      0.05409 *
 * O              24      0.08716     -0.22955      0.04854 *
 * O              25      0.01336      0.22027      0.01325 *
 * O              26      0.19903     -0.09074      0.01222 *
 * O              27     -0.88556      0.09514     -0.22068 *
 * O              28     -0.33042     -0.84530     -0.22187 *
 * O              29     -0.19926      0.11718     -0.72172 *
 * O              30      0.01097     -0.22620     -0.71978 *
 * O              31      0.63848     -0.61547      0.43290 *
 * O              32     -0.25382      0.85481      0.43338 *
 * O              33     -0.32140      0.91555      0.50555 *
 * O              34      0.66599     -0.70672      0.49985 *
 * O              35     -0.29414     -0.15538     -0.47538 *
 * O              36     -0.27530     -0.18743     -0.47676 *
 * O              37     -0.22802      0.00216     -0.68223 *
 * O              38     -0.10210     -0.20064     -0.67624 *
 * O              39     -0.75096      0.03472     -0.08735 *
 * O              40     -0.31133     -0.67477     -0.08791 *
 * O              41     -0.72410      0.13707     -0.13054 *
 * O              42     -0.21444     -0.71108     -0.13029 *
 * V               1     -0.03560     -0.45338      0.02511 *
 * V               2     -0.41230      0.18166      0.03424 *
 * V               3     -0.30028      0.82774     -0.31479 *
 * V               4      0.59981     -0.65417     -0.32394 *
 * V               5     -0.25611      0.13308     -0.08822 *
 * V               6      0.01141     -0.30397     -0.09025 *
 * V               7     -0.03542      0.21042      0.36116 *
 * V               8      0.16652     -0.11873      0.38048 *
 * V               9      0.07172      0.37943     -0.05252 *
 * V              10      0.36965     -0.11678     -0.04673 *
 * V              11      0.29227      0.58168      0.11165 *
 * V              12      0.64279      0.02700      0.11015 *
 * Fe              1      0.00722      0.04132     -0.00247 *
 * Fe              2      0.04627     -0.01649      0.00143 *
 * Fe              3     -0.03295      0.00545      0.03991 *
 * Fe              4     -0.00498     -0.03970      0.04406 *
 * Fe              5      0.00951     -0.02978      0.03600 *
 * Fe              6     -0.01263      0.01347      0.03972 *
 *                                                          *
 ************************************************************

 Pseudo atomic calculation performed for Li 1s2 2s1

 Converged in 18 iterations to a total energy of -200.5098 eV

 Pseudo atomic calculation performed for O 2s2 2p4

 Converged in 24 iterations to a total energy of -432.3399 eV

 Pseudo atomic calculation performed for V 3s2 3p6 3d3 4s2

 Converged in 36 iterations to a total energy of -2065.8041 eV

 Pseudo atomic calculation performed for Fe 3d6 4s2

 Converged in 34 iterations to a total energy of -853.8318 eV
Charge spilling parameter for spin component 1 = 0.18%
Charge spilling parameter for spin component 2 = 0.15%

                   Orbital Populations                  
  ---------------------------------------------------------------
     Ion    Atom   Orbital              Up        Down      Spin
  ---------------------------------------------------------------
     Li     1      S                    1.000     1.000     0.000
     Li     1      S                    0.013     0.016    -0.003
     Li     1      Px                   0.036     0.038    -0.002
     Li     1      Py                   0.034     0.037    -0.003
     Li     1      Pz                   0.028     0.030    -0.001
     Li     2      S                    1.000     1.000     0.000
     Li     2      S                    0.013     0.016    -0.003
     Li     2      Px                   0.033     0.035    -0.002
     Li     2      Py                   0.036     0.040    -0.004
     Li     2      Pz                   0.028     0.030    -0.001
     Li     3      S                    1.000     1.000     0.000
     Li     3      S                    0.002     0.008    -0.005
     Li     3      Px                   0.026     0.029    -0.003
     Li     3      Py                   0.029     0.033    -0.005
     Li     3      Pz                   0.037     0.041    -0.004
     Li     4      S                    1.000     1.000     0.000
     Li     4      S                    0.002     0.008    -0.005
     Li     4      Px                   0.018     0.021    -0.003
     Li     4      Py                   0.037     0.041    -0.004
     Li     4      Pz                   0.037     0.041    -0.004
     Li     5      S                    1.000     1.000     0.000
     Li     5      S                    0.004     0.008    -0.004
     Li     5      Px                   0.024     0.026    -0.002
     Li     5      Py                   0.033     0.036    -0.003
     Li     5      Pz                   0.043     0.045    -0.002
     Li     6      S                    1.000     1.000     0.000
     Li     6      S                    0.004     0.008    -0.004
     Li     6      Px                   0.023     0.025    -0.002
     Li     6      Py                   0.034     0.037    -0.003
     Li     6      Pz                   0.043     0.045    -0.002
      O     1      S                    0.943     0.935     0.008
      O     1      Px                   0.824     0.785     0.039
      O     1      Py                   0.772     0.756     0.016
      O     1      Pz                   0.832     0.812     0.021
      O     2      S                    0.943     0.935     0.008
      O     2      Px                   0.765     0.734     0.031
      O     2      Py                   0.830     0.806     0.024
      O     2      Pz                   0.832     0.812     0.021
      O     3      S                    0.941     0.932     0.009
      O     3      Px                   0.769     0.733     0.037
      O     3      Py                   0.835     0.813     0.022
      O     3      Pz                   0.839     0.813     0.026
      O     4      S                    0.941     0.932     0.009
      O     4      Px                   0.828     0.791     0.037
      O     4      Py                   0.776     0.755     0.022
      O     4      Pz                   0.839     0.813     0.026
      O     5      S                    0.943     0.934     0.008
      O     5      Px                   0.831     0.801     0.031
      O     5      Py                   0.836     0.802     0.034
      O     5      Pz                   0.773     0.754     0.020
      O     6      S                    0.943     0.934     0.008
      O     6      Px                   0.831     0.816     0.016
      O     6      Py                   0.836     0.787     0.049
      O     6      Pz                   0.773     0.754     0.020
      O     7      S                    0.940     0.930     0.010
      O     7      Px                   0.847     0.805     0.042
      O     7      Py                   0.842     0.802     0.040
      O     7      Pz                   0.772     0.754     0.018
      O     8      S                    0.940     0.930     0.010
      O     8      Px                   0.842     0.818     0.024
      O     8      Py                   0.847     0.789     0.058
      O     8      Pz                   0.772     0.754     0.018
      O     9      S                    0.941     0.928     0.013
      O     9      Px                   0.826     0.806     0.020
      O     9      Py                   0.783     0.746     0.037
      O     9      Pz                   0.813     0.776     0.037
      O    10      S                    0.941     0.928     0.013
      O    10      Px                   0.805     0.768     0.038
      O    10      Py                   0.804     0.784     0.019
      O    10      Pz                   0.813     0.776     0.037
      O    11      S                    0.940     0.929     0.012
      O    11      Px                   0.818     0.807     0.011
      O    11      Py                   0.773     0.751     0.022
      O    11      Pz                   0.808     0.783     0.025
      O    12      S                    0.940     0.929     0.012
      O    12      Px                   0.796     0.777     0.019
      O    12      Py                   0.795     0.781     0.014
      O    12      Pz                   0.808     0.783     0.025
      O    13      S                    0.928     0.928    -0.001
      O    13      Px                   0.772     0.773    -0.001
      O    13      Py                   0.806     0.804     0.002
      O    13      Pz                   0.807     0.806     0.001
      O    14      S                    0.928     0.928    -0.001
      O    14      Px                   0.772     0.773    -0.001
      O    14      Py                   0.806     0.804     0.002
      O    14      Pz                   0.807     0.806     0.001
      O    15      S                    0.943     0.926     0.017
      O    15      Px                   0.868     0.778     0.091
      O    15      Py                   0.808     0.763     0.045
      O    15      Pz                   0.859     0.787     0.072
      O    16      S                    0.943     0.926     0.017
      O    16      Px                   0.809     0.747     0.062
      O    16      Py                   0.867     0.794     0.073
      O    16      Pz                   0.859     0.787     0.072
      O    17      S                    0.938     0.931     0.007
      O    17      Px                   0.832     0.825     0.007
      O    17      Py                   0.848     0.807     0.042
      O    17      Pz                   0.771     0.761     0.010
      O    18      S                    0.938     0.931     0.007
      O    18      Px                   0.826     0.793     0.034
      O    18      Py                   0.854     0.839     0.015
      O    18      Pz                   0.771     0.761     0.010
      O    19      S                    0.944     0.944    -0.000
      O    19      Px                   0.758     0.759    -0.001
      O    19      Py                   0.777     0.774     0.004
      O    19      Pz                   0.781     0.780     0.001
      O    20      S                    0.944     0.944    -0.000
      O    20      Px                   0.787     0.786     0.001
      O    20      Py                   0.749     0.747     0.001
      O    20      Pz                   0.781     0.780     0.001
      O    21      S                    0.940     0.930     0.010
      O    21      Px                   0.825     0.813     0.012
      O    21      Py                   0.768     0.751     0.016
      O    21      Pz                   0.804     0.781     0.023
      O    22      S                    0.940     0.930     0.010
      O    22      Px                   0.793     0.779     0.015
      O    22      Py                   0.799     0.786     0.014
      O    22      Pz                   0.804     0.781     0.023
      O    23      S                    0.927     0.928    -0.001
      O    23      Px                   0.778     0.778    -0.000
      O    23      Py                   0.802     0.801     0.001
      O    23      Pz                   0.810     0.808     0.003
      O    24      S                    0.927     0.928    -0.001
      O    24      Px                   0.773     0.774    -0.001
      O    24      Py                   0.808     0.806     0.002
      O    24      Pz                   0.810     0.808     0.003
      O    25      S                    0.932     0.925     0.007
      O    25      Px                   0.801     0.796     0.005
      O    25      Py                   0.818     0.776     0.042
      O    25      Pz                   0.831     0.811     0.020
      O    26      S                    0.932     0.925     0.007
      O    26      Px                   0.788     0.753     0.035
      O    26      Py                   0.830     0.818     0.012
      O    26      Pz                   0.831     0.811     0.020
      O    27      S                    0.941     0.940     0.000
      O    27      Px                   0.756     0.755     0.001
      O    27      Py                   0.809     0.799     0.010
      O    27      Pz                   0.814     0.808     0.005
      O    28      S                    0.941     0.940     0.000
      O    28      Px                   0.807     0.799     0.009
      O    28      Py                   0.758     0.755     0.002
      O    28      Pz                   0.814     0.808     0.006
      O    29      S                    0.941     0.933     0.008
      O    29      Px                   0.828     0.797     0.032
      O    29      Py                   0.837     0.804     0.034
      O    29      Pz                   0.768     0.752     0.016
      O    30      S                    0.941     0.933     0.008
      O    30      Px                   0.830     0.816     0.014
      O    30      Py                   0.836     0.785     0.051
      O    30      Pz                   0.768     0.752     0.016
      O    31      S                    0.941     0.931     0.010
      O    31      Px                   0.795     0.779     0.016
      O    31      Py                   0.800     0.787     0.013
      O    31      Pz                   0.810     0.782     0.028
      O    32      S                    0.941     0.931     0.010
      O    32      Px                   0.822     0.809     0.012
      O    32      Py                   0.773     0.756     0.017
      O    32      Pz                   0.810     0.782     0.028
      O    33      S                    0.942     0.930     0.012
      O    33      Px                   0.813     0.801     0.012
      O    33      Py                   0.772     0.749     0.023
      O    33      Pz                   0.804     0.778     0.026
      O    34      S                    0.942     0.930     0.012
      O    34      Px                   0.791     0.772     0.019
      O    34      Py                   0.793     0.777     0.015
      O    34      Pz                   0.804     0.778     0.026
      O    35      S                    0.941     0.932     0.008
      O    35      Px                   0.807     0.779     0.028
      O    35      Py                   0.838     0.806     0.032
      O    35      Pz                   0.797     0.767     0.030
      O    36      S                    0.941     0.932     0.008
      O    36      Px                   0.810     0.797     0.013
      O    36      Py                   0.835     0.789     0.046
      O    36      Pz                   0.797     0.767     0.030
      O    37      S                    0.943     0.935     0.008
      O    37      Px                   0.821     0.777     0.044
      O    37      Py                   0.848     0.823     0.025
      O    37      Pz                   0.772     0.755     0.018
      O    38      S                    0.943     0.935     0.008
      O    38      Px                   0.838     0.820     0.019
      O    38      Py                   0.831     0.780     0.051
      O    38      Pz                   0.772     0.754     0.018
      O    39      S                    0.942     0.933     0.009
      O    39      Px                   0.768     0.733     0.035
      O    39      Py                   0.834     0.816     0.018
      O    39      Pz                   0.836     0.811     0.025
      O    40      S                    0.942     0.933     0.009
      O    40      Px                   0.827     0.797     0.030
      O    40      Py                   0.775     0.751     0.024
      O    40      Pz                   0.836     0.811     0.025
      O    41      S                    0.946     0.939     0.007
      O    41      Px                   0.753     0.729     0.025
      O    41      Py                   0.818     0.796     0.022
      O    41      Pz                   0.812     0.801     0.010
      O    42      S                    0.946     0.939     0.007
      O    42      Px                   0.817     0.780     0.036
      O    42      Py                   0.754     0.744     0.010
      O    42      Pz                   0.812     0.801     0.011
      V     1      S                    0.995     0.995     0.000
      V     1      Px                   0.995     0.995     0.000
      V     1      Py                   0.995     0.995     0.000
      V     1      Pz                   0.995     0.995     0.000
      V     1      Dzz                  0.352     0.321     0.031
      V     1      Dzy                  0.323     0.303     0.020
      V     1      Dzx                  0.323     0.298     0.025
      V     1      Dxx-yy               0.332     0.309     0.023
      V     1      Dxy                  0.324     0.292     0.032
      V     1      S                    0.092     0.091     0.001
      V     1      Px                   0.064     0.066    -0.002
      V     1      Py                   0.075     0.074     0.001
      V     1      Pz                   0.073     0.071     0.002
      V     2      S                    0.995     0.995     0.000
      V     2      Px                   0.996     0.996    -0.000
      V     2      Py                   0.995     0.995     0.000
      V     2      Pz                   0.995     0.995     0.000
      V     2      Dzz                  0.352     0.321     0.031
      V     2      Dzy                  0.330     0.299     0.031
      V     2      Dzx                  0.315     0.302     0.013
      V     2      Dxx-yy               0.327     0.308     0.019
      V     2      Dxy                  0.329     0.293     0.036
      V     2      S                    0.092     0.091     0.001
      V     2      Px                   0.077     0.077     0.001
      V     2      Py                   0.062     0.063    -0.001
      V     2      Pz                   0.073     0.071     0.002
      V     3      S                    0.995     0.995    -0.000
      V     3      Px                   0.995     0.995    -0.000
      V     3      Py                   0.995     0.995     0.000
      V     3      Pz                   0.995     0.995     0.000
      V     3      Dzz                  0.303     0.292     0.011
      V     3      Dzy                  0.329     0.304     0.025
      V     3      Dzx                  0.340     0.336     0.005
      V     3      Dxx-yy               0.335     0.325     0.010
      V     3      Dxy                  0.298     0.283     0.015
      V     3      S                    0.112     0.115    -0.003
      V     3      Px                   0.085     0.088    -0.003
      V     3      Py                   0.063     0.064    -0.001
      V     3      Pz                   0.075     0.080    -0.004
      V     4      S                    0.995     0.995    -0.000
      V     4      Px                   0.996     0.996     0.000
      V     4      Py                   0.995     0.994     0.000
      V     4      Pz                   0.995     0.995     0.000
      V     4      Dzz                  0.303     0.292     0.011
      V     4      Dzy                  0.333     0.323     0.009
      V     4      Dzx                  0.337     0.317     0.020
      V     4      Dxx-yy               0.298     0.285     0.013
      V     4      Dxy                  0.336     0.323     0.013
      V     4      S                    0.112     0.115    -0.003
      V     4      Px                   0.068     0.071    -0.003
      V     4      Py                   0.080     0.081    -0.001
      V     4      Pz                   0.075     0.080    -0.004
      V     5      S                    0.996     0.996     0.000
      V     5      Px                   0.995     0.995     0.000
      V     5      Py                   0.995     0.995     0.000
      V     5      Pz                   0.995     0.995     0.000
      V     5      Dzz                  0.348     0.313     0.034
      V     5      Dzy                  0.330     0.296     0.034
      V     5      Dzx                  0.321     0.302     0.018
      V     5      Dxx-yy               0.332     0.313     0.018
      V     5      Dxy                  0.329     0.288     0.041
      V     5      S                    0.096     0.094     0.002
      V     5      Px                   0.081     0.080     0.001
      V     5      Py                   0.070     0.071    -0.001
      V     5      Pz                   0.078     0.078     0.001
      V     6      S                    0.996     0.996     0.000
      V     6      Px                   0.995     0.995     0.000
      V     6      Py                   0.995     0.995     0.000
      V     6      Pz                   0.995     0.995     0.000
      V     6      Dzz                  0.348     0.314     0.034
      V     6      Dzy                  0.323     0.297     0.026
      V     6      Dzx                  0.328     0.302     0.026
      V     6      Dxx-yy               0.333     0.304     0.028
      V     6      Dxy                  0.328     0.297     0.031
      V     6      S                    0.096     0.094     0.002
      V     6      Px                   0.070     0.071    -0.002
      V     6      Py                   0.081     0.079     0.002
      V     6      Pz                   0.078     0.078     0.001
      V     7      S                    0.996     0.996     0.000
      V     7      Px                   0.995     0.995    -0.000
      V     7      Py                   0.995     0.995     0.000
      V     7      Pz                   0.996     0.996     0.000
      V     7      Dzz                  0.337     0.309     0.028
      V     7      Dzy                  0.314     0.291     0.024
      V     7      Dzx                  0.310     0.286     0.025
      V     7      Dxx-yy               0.350     0.321     0.028
      V     7      Dxy                  0.342     0.318     0.023
      V     7      S                    0.093     0.093     0.000
      V     7      Px                   0.059     0.062    -0.003
      V     7      Py                   0.084     0.082     0.002
      V     7      Pz                   0.086     0.085     0.002
      V     8      S                    0.996     0.996     0.000
      V     8      Px                   0.995     0.995     0.000
      V     8      Py                   0.995     0.995     0.000
      V     8      Pz                   0.996     0.996     0.000
      V     8      Dzz                  0.337     0.309     0.028
      V     8      Dzy                  0.328     0.293     0.035
      V     8      Dzx                  0.297     0.284     0.013
      V     8      Dxx-yy               0.344     0.329     0.016
      V     8      Dxy                  0.347     0.311     0.036
      V     8      S                    0.093     0.093     0.000
      V     8      Px                   0.078     0.077     0.001
      V     8      Py                   0.065     0.067    -0.002
      V     8      Pz                   0.086     0.084     0.002
      V     9      S                    0.995     0.995     0.000
      V     9      Px                   0.995     0.995     0.000
      V     9      Py                   0.995     0.995     0.000
      V     9      Pz                   0.995     0.995     0.000
      V     9      Dzz                  0.349     0.319     0.030
      V     9      Dzy                  0.321     0.298     0.023
      V     9      Dzx                  0.325     0.299     0.026
      V     9      Dxx-yy               0.334     0.310     0.023
      V     9      Dxy                  0.327     0.298     0.029
      V     9      S                    0.095     0.094     0.001
      V     9      Px                   0.068     0.069    -0.001
      V     9      Py                   0.083     0.081     0.002
      V     9      Pz                   0.077     0.076     0.001
      V    10      S                    0.995     0.995     0.000
      V    10      Px                   0.995     0.995    -0.000
      V    10      Py                   0.995     0.995     0.000
      V    10      Pz                   0.995     0.995     0.000
      V    10      Dzz                  0.349     0.319     0.030
      V    10      Dzy                  0.331     0.300     0.031
      V    10      Dzx                  0.315     0.297     0.018
      V    10      Dxx-yy               0.329     0.312     0.017
      V    10      Dxy                  0.332     0.296     0.035
      V    10      S                    0.095     0.094     0.001
      V    10      Px                   0.088     0.086     0.002
      V    10      Py                   0.063     0.064    -0.001
      V    10      Pz                   0.077     0.076     0.001
      V    11      S                    0.995     0.995     0.000
      V    11      Px                   0.995     0.995     0.000
      V    11      Py                   0.995     0.995     0.000
      V    11      Pz                   0.995     0.995     0.000
      V    11      Dzz                  0.347     0.319     0.029
      V    11      Dzy                  0.313     0.289     0.023
      V    11      Dzx                  0.326     0.306     0.020
      V    11      Dxx-yy               0.332     0.318     0.014
      V    11      Dxy                  0.328     0.305     0.023
      V    11      S                    0.098     0.096     0.002
      V    11      Px                   0.074     0.071     0.002
      V    11      Py                   0.070     0.073    -0.003
      V    11      Pz                   0.072     0.071     0.001
      V    12      S                    0.995     0.995     0.000
      V    12      Px                   0.996     0.996    -0.000
      V    12      Py                   0.994     0.994     0.000
      V    12      Pz                   0.995     0.995     0.000
      V    12      Dzz                  0.347     0.319     0.029
      V    12      Dzy                  0.332     0.312     0.020
      V    12      Dzx                  0.307     0.283     0.024
      V    12      Dxx-yy               0.329     0.317     0.013
      V    12      Dxy                  0.330     0.307     0.024
      V    12      S                    0.098     0.096     0.002
      V    12      Px                   0.076     0.079    -0.002
      V    12      Py                   0.067     0.066     0.002
      V    12      Pz                   0.072     0.071     0.001
     Fe     1      Dzz                  0.999     0.074     0.925
     Fe     1      Dzy                  0.994     0.229     0.764
     Fe     1      Dzx                  0.995     0.197     0.798
     Fe     1      Dxx-yy               0.996     0.160     0.836
     Fe     1      Dxy                  0.997     0.145     0.853
     Fe     1      S                    0.221     0.179     0.042
     Fe     1      Px                   0.090     0.079     0.011
     Fe     1      Py                   0.096     0.083     0.013
     Fe     1      Pz                   0.094     0.082     0.012
     Fe     2      Dzz                  0.999     0.074     0.925
     Fe     2      Dzy                  0.994     0.228     0.766
     Fe     2      Dzx                  0.995     0.199     0.796
     Fe     2      Dxx-yy               0.997     0.118     0.879
     Fe     2      Dxy                  0.996     0.186     0.810
     Fe     2      S                    0.221     0.179     0.042
     Fe     2      Px                   0.094     0.082     0.012
     Fe     2      Py                   0.092     0.081     0.011
     Fe     2      Pz                   0.094     0.082     0.012
     Fe     3      Dzz                  0.998     0.080     0.918
     Fe     3      Dzy                  0.992     0.235     0.757
[...]
              O 39 -- V 9                    0.62         0.01          1.74311
              O 3  -- V 1                    0.62         0.01          1.74435
              O 4  -- V 2                    0.62         0.01          1.74436
              O 38 -- V 6                    0.59         0.01          1.74928
              O 37 -- V 5                    0.59         0.01          1.74957
              O 8  -- V 12                   0.60         0.01          1.75543
              O 7  -- V 11                   0.60         0.01          1.75551
              O 36 -- V 4                    0.59         0.01          1.76187
              O 35 -- V 3                    0.59         0.01          1.76195
              O 13 -- V 7                    0.54        -0.00          1.77650
              O 14 -- V 8                    0.54        -0.00          1.77680
              O 24 -- V 6                    0.53        -0.00          1.79860
              O 23 -- V 5                    0.53        -0.00          1.79874
              O 23 -- V 9                    0.53        -0.00          1.80305
              O 24 -- V 10                   0.53        -0.00          1.80306
              O 14 -- V 1                    0.51        -0.00          1.81546
              O 13 -- V 2                    0.51        -0.00          1.81551
              O 18 -- V 8                    0.49         0.01          1.81865
              O 17 -- V 7                    0.49         0.01          1.81959
              O 25 -- V 11                   0.49         0.00          1.84501
              O 26 -- V 12                   0.49         0.00          1.84503
              O 16 -- V 4                    0.47         0.01          1.88169
              O 15 -- V 3                    0.47         0.01          1.88189
              O 25 -- V 3                    0.38         0.00          1.90336
              O 26 -- V 4                    0.38         0.00          1.90353
              O 10 -- Fe 2                   0.35        -0.05          1.92810
              O 9  -- Fe 1                   0.35        -0.05          1.92835
              O 33 -- Fe 4                   0.30        -0.04          1.97080
              Li 5 -- O 27                   0.18         0.00          1.97109
              O 34 -- Fe 3                   0.30        -0.04          1.97110
              Li 6 -- O 28                   0.18         0.00          1.97111
              O 12 -- Fe 4                   0.29        -0.04          1.98806
              O 11 -- Fe 3                   0.29        -0.04          1.98884
              O 8  -- Fe 3                   0.28        -0.05          1.99619
              O 7  -- Fe 4                   0.28        -0.05          1.99679
              O 32 -- Fe 2                   0.31        -0.04          2.01476
              O 31 -- Fe 1                   0.31        -0.04          2.01528
              O 37 -- Fe 5                   0.28        -0.04          2.01760
              O 38 -- Fe 6                   0.28        -0.04          2.01833
              O 4  -- Fe 5                   0.28        -0.04          2.02312
              O 3  -- Fe 6                   0.28        -0.04          2.02341
              Li 4 -- O 8                    0.14         0.00          2.02604
              O 22 -- Fe 6                   0.30        -0.04          2.02612
              Li 3 -- O 7                    0.14         0.00          2.02628
              O 21 -- Fe 5                   0.30        -0.04          2.02768
              O 35 -- Fe 3                   0.26        -0.04          2.02794
              O 36 -- Fe 4                   0.26        -0.04          2.02842
              O 15 -- Fe 6                   0.31        -0.04          2.02892
              O 16 -- Fe 5                   0.31        -0.04          2.02971
              O 6  -- Fe 5                   0.28        -0.04          2.03036
              O 5  -- Fe 6                   0.28        -0.04          2.03082
              Li 2 -- O 27                   0.14         0.00          2.03575
              Li 1 -- O 28                   0.14         0.00          2.03692
              O 1  -- Fe 3                   0.27        -0.04          2.04059
              O 2  -- Fe 4                   0.27        -0.04          2.04106
              Li 4 -- O 39                   0.13         0.00          2.04517
              O 39 -- Fe 1                   0.27        -0.04          2.04519
              Li 3 -- O 40                   0.13         0.00          2.04534
              O 40 -- Fe 2                   0.27        -0.04          2.04560
              O 29 -- Fe 1                   0.25        -0.04          2.05155
              O 30 -- Fe 2                   0.25        -0.04          2.05238
              Li 6 -- O 30                   0.15         0.00          2.06154
              Li 5 -- O 29                   0.15         0.00          2.06259
              O 16 -- Fe 2                   0.29        -0.04          2.06640
              O 15 -- Fe 1                   0.29        -0.04          2.06646
              Li 1 -- O 6                    0.09         0.00          2.06932
              Li 3 -- O 36                   0.16         0.00          2.06990
              Li 2 -- O 5                    0.09         0.00          2.07009
              Li 4 -- O 35                   0.16         0.00          2.07129
              O 42 -- Fe 4                   0.25        -0.04          2.08104
              O 41 -- Fe 3                   0.24        -0.04          2.08144
              O 18 -- V 4                    0.25         0.00          2.08979
              O 17 -- V 3                    0.25         0.00          2.08984
              Li 2 -- O 19                   0.18         0.00          2.09008
              Li 1 -- O 20                   0.18         0.00          2.09055
              Li 1 -- O 37                   0.12         0.00          2.10128
              Li 2 -- O 38                   0.12         0.00          2.10134
              O 17 -- Fe 1                   0.16        -0.04          2.11314
              O 18 -- Fe 2                   0.16        -0.04          2.11380
              Li 4 -- O 4                    0.13         0.00          2.12368
              Li 3 -- O 3                    0.13         0.00          2.12421
              Li 5 -- O 1                    0.12         0.00          2.16385
              Li 6 -- O 2                    0.12         0.00          2.16508
              O 25 -- Fe 6                   0.18        -0.04          2.16632
              O 26 -- Fe 5                   0.18        -0.04          2.16641
              Li 5 -- O 17                   0.06         0.00          2.19131
              Li 6 -- O 18                   0.06         0.00          2.19325
              Li 6 -- O 20                  -0.01        -0.00          2.33269
              Li 5 -- O 19                  -0.01        -0.00          2.33510
              O 15 -- O 25                  -0.05        -0.01          2.50827
              O 16 -- O 26                  -0.05        -0.01          2.50865
              O 15 -- O 17                  -0.06        -0.00          2.55524
              O 16 -- O 18                  -0.06        -0.00          2.55545
              Li 1 -- O 41                   0.03        -0.00          2.56910
              Li 2 -- O 42                   0.03        -0.00          2.57317
              O 6  -- O 37                  -0.04        -0.00          2.65265
              O 5  -- O 38                  -0.04        -0.00          2.65273
              O 18 -- O 36                  -0.04        -0.00          2.66517
              O 17 -- O 35                  -0.04        -0.00          2.66525
              O 7  -- O 36                  -0.04        -0.00          2.68019
              O 8  -- O 35                  -0.04        -0.00          2.68076
              Li 4 -- O 21                  -0.01         0.00          2.68188
              Li 3 -- O 22                  -0.01         0.00          2.68325
              O 17 -- O 29                  -0.04        -0.00          2.71051
              O 18 -- O 30                  -0.04        -0.00          2.71158
              O 30 -- O 40                  -0.04        -0.00          2.71626
              O 29 -- O 39                  -0.04        -0.00          2.71641
              O 17 -- O 19                  -0.02        -0.00          2.73155
              O 18 -- O 20                  -0.02        -0.00          2.73202
              O 4  -- O 26                  -0.04        -0.00          2.73862
              O 3  -- O 25                  -0.04        -0.00          2.73879
              O 26 -- O 36                  -0.02        -0.00          2.76144
              O 10 -- O 28                   0.00        -0.00          2.76150
              O 9  -- O 27                   0.00        -0.00          2.76152
              O 25 -- O 35                  -0.02        -0.00          2.76171
              O 13 -- O 41                  -0.01        -0.00          2.76354
              O 14 -- O 42                  -0.01        -0.00          2.76411
              O 36 -- O 42                  -0.04        -0.00          2.76446
              O 35 -- O 41                  -0.04        -0.00          2.76467
              O 4  -- O 21                  -0.03        -0.00          2.76544
              O 3  -- O 22                  -0.03        -0.00          2.76568
              O 6  -- O 12                   0.00        -0.00          2.77201
              O 5  -- O 11                   0.00        -0.00          2.77203
              O 30 -- O 34                   0.00        -0.00          2.77322
              O 29 -- O 33                   0.00        -0.00          2.77369
              O 3  -- O 5                   -0.03        -0.00          2.78814
              O 4  -- O 6                   -0.03        -0.00          2.78819
              O 2  -- O 24                  -0.01        -0.00          2.79040
              O 1  -- O 23                  -0.01        -0.00          2.79045
              O 20 -- O 36                   0.00        -0.00          2.79588
              O 19 -- O 35                   0.00        -0.00          2.79605
              Li 2 -- O 14                  -0.02         0.00          2.79675
              O 21 -- O 41                   0.00        -0.00          2.79897
              O 22 -- O 42                   0.00        -0.00          2.79901
              Li 1 -- O 13                  -0.02         0.00          2.79914
              O 14 -- O 33                  -0.00         0.00          2.80425
              O 13 -- O 34                  -0.00         0.00          2.80469
              O 19 -- O 25                  -0.01         0.00          2.80570
              O 20 -- O 26                  -0.01         0.00          2.80595
              O 3  -- O 33                   0.00        -0.00          2.81022
              O 4  -- O 34                   0.00        -0.00          2.81032
              O 22 -- O 38                  -0.03        -0.00          2.81127
              O 34 -- O 41                  -0.02        -0.00          2.81133
              O 21 -- O 37                  -0.03        -0.00          2.81134
              O 33 -- O 42                  -0.02        -0.00          2.81282
              O 2  -- O 12                  -0.03        -0.00          2.81394
              O 1  -- O 11                  -0.03        -0.00          2.81407
              O 12 -- O 36                  -0.03        -0.00          2.81410
              O 11 -- O 35                  -0.03        -0.00          2.81483
              O 13 -- O 21                   0.00        -0.00          2.82097
              O 14 -- O 22                   0.00        -0.00          2.82107
              O 31 -- O 39                  -0.03        -0.00          2.82122
              O 32 -- O 40                  -0.03        -0.00          2.82196
              O 35 -- V 7                   -0.04        -0.00          2.82214
              O 8  -- O 28                   0.00         0.00          2.82256
              O 7  -- O 27                   0.00         0.00          2.82267
              O 24 -- O 40                  -0.01        -0.00          2.82272
              O 23 -- O 39                  -0.01        -0.00          2.82361
              O 36 -- V 8                   -0.04        -0.00          2.82372
              O 11 -- O 39                   0.00        -0.00          2.82405
              O 12 -- O 40                   0.00        -0.00          2.82420
              O 8  -- O 10                   0.00        -0.00          2.82506
              O 7  -- O 9                    0.00        -0.00          2.82535
              O 2  -- O 32                   0.00        -0.00          2.82844
              O 1  -- O 31                   0.00        -0.00          2.82875
              O 9  -- O 39                  -0.02        -0.00          2.82917
              O 10 -- O 40                  -0.02        -0.00          2.82969
              O 23 -- O 31                  -0.00        -0.00          2.83668
              O 24 -- O 32                  -0.00        -0.00          2.83690
              O 18 -- O 32                  -0.03        -0.00          2.83765
              O 17 -- O 31                  -0.03        -0.00          2.83853
              O 12 -- O 24                  -0.00         0.00          2.83873
              O 11 -- O 23                  -0.00         0.00          2.83900
              O 5  -- O 23                  -0.00        -0.00          2.84107
              O 6  -- O 24                  -0.00        -0.00          2.84152
              O 19 -- O 27                  -0.02        -0.00          2.84282
              O 20 -- O 28                  -0.02        -0.00          2.84313
              O 1  -- O 8                   -0.03        -0.00          2.84615
              O 24 -- O 38                  -0.00        -0.00          2.84729
              O 2  -- O 7                   -0.03        -0.00          2.84738
              O 23 -- O 37                  -0.00        -0.00          2.84765
              O 12 -- O 33                  -0.02        -0.00          2.84859
              O 11 -- O 34                  -0.02        -0.00          2.84980
              O 2  -- O 33                  -0.02        -0.00          2.85083
              O 1  -- O 34                  -0.02        -0.00          2.85188
              O 4  -- O 13                  -0.00        -0.00          2.85698
              O 3  -- O 14                  -0.00        -0.00          2.85742
              O 10 -- O 26                  -0.00         0.00          2.86900
              O 9  -- O 25                  -0.00         0.00          2.86998
              O 22 -- O 25                  -0.02        -0.00          2.87253
              O 10 -- O 34                  -0.01         0.00          2.87258
              O 21 -- O 26                  -0.02        -0.00          2.87374
              O 9  -- O 33                  -0.01         0.00          2.87400
              O 32 -- O 38                   0.00         0.00          2.88220
              O 31 -- O 37                   0.00         0.00          2.88229
              O 12 -- O 42                  -0.02        -0.00          2.88820
              O 11 -- O 41                  -0.02        -0.00          2.88879
              O 15 -- O 29                  -0.03        -0.00          2.89539
              O 16 -- O 30                  -0.03        -0.00          2.89570
              O 18 -- O 22                   0.00         0.00          2.90019
              O 17 -- O 21                   0.00         0.00          2.90086
              O 13 -- O 30                   0.00         0.00          2.90310
              O 14 -- O 29                   0.00         0.00          2.90315
              O 25 -- O 27                   0.00        -0.00          2.90606
              O 13 -- O 17                  -0.00        -0.00          2.90655
              O 26 -- O 28                   0.00        -0.00          2.90698
              O 14 -- O 18                  -0.00        -0.00          2.90705
              Li 5 -- O 23                  -0.02         0.00          2.92000
              Li 6 -- O 24                  -0.02         0.00          2.92039
              O 7  -- O 42                  -0.02        -0.00          2.92241
              O 8  -- O 41                  -0.02        -0.00          2.92314
              O 10 -- O 32                  -0.02        -0.00          2.92485
              O 9  -- O 31                  -0.02        -0.00          2.92570
              O 2  -- O 38                   0.01        -0.00          2.92625
              O 1  -- O 37                   0.01        -0.00          2.92719
              O 3  -- O 29                   0.01        -0.00          2.93294
              O 4  -- O 30                   0.01        -0.00          2.93324
              O 27 -- O 29                  -0.02        -0.00          2.93507
              O 28 -- O 30                  -0.02        -0.00          2.93549
              O 8  -- O 34                  -0.02        -0.00          2.94204
              O 7  -- O 33                  -0.02        -0.00          2.94420
              O 16 -- O 20                   0.00        -0.00          2.94429
              O 15 -- O 19                   0.00        -0.00          2.94494
              O 9  -- O 15                  -0.02        -0.00          2.94712
              O 10 -- O 16                  -0.02        -0.00          2.94748
              Li 3 -- O 24                  -0.03         0.00          2.94939
              O 18 -- O 42                   0.01        -0.00          2.94952
              Li 4 -- O 23                  -0.03         0.00          2.95100
              O 17 -- O 41                   0.01        -0.00          2.95101
              O 8  -- O 26                  -0.00        -0.00          2.95565
              O 7  -- O 25                  -0.00        -0.00          2.95579
              O 5  -- O 15                  -0.02        -0.00          2.95635
              O 6  -- O 16                  -0.02        -0.00          2.95735
              O 14 -- O 27                  -0.02        -0.00          2.95742
              O 13 -- O 28                  -0.02        -0.00          2.95840
              O 6  -- O 30                  -0.02         0.00          2.96395
              O 5  -- O 29                  -0.02         0.00          2.96450
              O 6  -- O 40                   0.01        -0.00          2.97657
              O 5  -- O 39                   0.01        -0.00          2.97696
              O 3  -- O 7                   -0.02        -0.00          2.99130
              O 4  -- O 8                   -0.02        -0.00          2.99157
              Li 4 -- O 31                  -0.03         0.00          2.99685
              Li 3 -- O 32                  -0.03         0.00          2.99812
================================================================================


Writing analysis data to ml_dos.castep_bin

Writing model to ml_dos.check
 
 A BibTeX formatted list of references used in this run has been written to 
 ml_dos.bib
 
Initialisation time =     14.14 s
Calculation time    =   6966.74 s
Finalisation time   =      7.15 s
Total time          =   6988.04 s
Peak Memory Use     = 5850048 kB
 
Overall parallel efficiency rating: Poor (46%)
 
Data was distributed by:-
G-vector (40-way); efficiency rating: Poor (46%)
